M 0.10000 1 (30.00, 30.00, 0.00), (350.00, 350.00), 400.00
s 0.400000000 _0_ AGT  --- 0 cbr 210 [0 0 0 0] ------- [0:0 1:0 32 0] [0] 0 0
r 0.400000000 _0_ RTR  --- 0 cbr 210 [0 0 0 0] ------- [0:0 1:0 32 0] [0] 0 0
s 0.400000000 _0_ RTR  --- 0 AODV 48 [0 0 0 0] ------- [0:255 -1:255 30 0] [0x2 1 1 [1 0] [0 4]] (REQUEST)
s 0.400535000 _0_ MAC  --- 0 AODV 106 [0 ffffffff 0 800] ------- [0:255 -1:255 30 0] [0x2 1 1 [1 0] [0 4]] (REQUEST)
r 0.401383495 _1_ MAC  --- 0 AODV 48 [0 ffffffff 0 800] ------- [0:255 -1:255 30 0] [0x2 1 1 [1 0] [0 4]] (REQUEST)
r 0.401408495 _1_ RTR  --- 0 AODV 48 [0 ffffffff 0 800] ------- [0:255 -1:255 30 0] [0x2 1 1 [1 0] [0 4]] (REQUEST)
s 0.401408495 _1_ RTR  --- 0 AODV 44 [0 0 0 0] ------- [1:255 0:255 30 0] [0x4 1 [1 4] 10.000000] (REPLY)
s 0.402023495 _1_ MAC  --- 0 ARP 86 [0 ffffffff 1 806] ------- [REQUEST 1/1 0/0]
r 0.402711992 _0_ MAC  --- 0 ARP 28 [0 ffffffff 1 806] ------- [REQUEST 1/1 0/0]
s 0.403086992 _0_ MAC  --- 0 RTS 44 [52e 1 0 0] 
r 0.403439490 _1_ MAC  --- 0 RTS 44 [52e 1 0 0] 
s 0.403449490 _1_ MAC  --- 0 CTS 38 [3f4 0 0 0] 
s 0.403750000 _0_ AGT  --- 1 cbr 210 [0 0 0 0] ------- [0:0 1:0 32 0] [1] 0 0
r 0.403750000 _0_ RTR  --- 1 cbr 210 [0 0 0 0] ------- [0:0 1:0 32 0] [1] 0 0
r 0.403753989 _0_ MAC  --- 0 CTS 38 [3f4 0 0 0] 
s 0.403763989 _0_ MAC  --- 0 ARP 86 [13a 1 0 806] ------- [REPLY 0/0 1/1]
r 0.404452489 _1_ MAC  --- 0 ARP 28 [13a 1 0 806] ------- [REPLY 0/0 1/1]
s 0.404462489 _1_ MAC  --- 0 ACK 38 [0 0 0 0] 
r 0.404766989 _0_ MAC  --- 0 ACK 38 [0 0 0 0] 
s 0.404816489 _1_ MAC  --- 0 RTS 44 [5ae 0 1 0] 
r 0.405168989 _0_ MAC  --- 0 RTS 44 [5ae 0 1 0] 
s 0.405178989 _0_ MAC  --- 0 CTS 38 [474 1 0 0] 
r 0.405483490 _1_ MAC  --- 0 CTS 38 [474 1 0 0] 
s 0.405493490 _1_ MAC  --- 0 AODV 102 [13a 0 1 800] ------- [1:255 0:255 30 0] [0x4 1 [1 4] 10.000000] (REPLY)
r 0.406309992 _0_ MAC  --- 0 AODV 44 [13a 0 1 800] ------- [1:255 0:255 30 0] [0x4 1 [1 4] 10.000000] (REPLY)
s 0.406319992 _0_ MAC  --- 0 ACK 38 [0 1 0 0] 
r 0.406334992 _0_ RTR  --- 0 AODV 44 [13a 0 1 800] ------- [1:255 0:255 30 0] [0x4 1 [1 4] 10.000000] (REPLY)
s 0.406334992 _0_ RTR  --- 0 cbr 230 [0 0 0 0] ------- [0:0 1:0 30 1] [0] 0 0
r 0.406624495 _1_ MAC  --- 0 ACK 38 [0 1 0 0] 
s 0.406833992 _0_ MAC  --- 0 RTS 44 [b7e 1 0 0] 
r 0.407186495 _1_ MAC  --- 0 RTS 44 [b7e 1 0 0] 
s 0.407196495 _1_ MAC  --- 0 CTS 38 [a44 0 0 0] 
s 0.407500000 _0_ AGT  --- 2 cbr 210 [0 0 0 0] ------- [0:0 1:0 32 0] [2] 0 0
r 0.407500000 _0_ RTR  --- 2 cbr 210 [0 0 0 0] ------- [0:0 1:0 32 0] [2] 0 0
s 0.407500000 _0_ RTR  --- 2 cbr 230 [0 0 0 0] ------- [0:0 1:0 30 1] [2] 0 0
r 0.407500999 _0_ MAC  --- 0 CTS 38 [a44 0 0 0] 
s 0.407510999 _0_ MAC  --- 0 cbr 288 [13a 1 0 800] ------- [0:0 1:0 30 1] [0] 0 0
r 0.409815504 _1_ MAC  --- 0 cbr 230 [13a 1 0 800] ------- [0:0 1:0 30 1] [0] 1 0
s 0.409825504 _1_ MAC  --- 0 ACK 38 [0 0 0 0] 
r 0.409840504 _1_ AGT  --- 0 cbr 230 [13a 1 0 800] ------- [0:0 1:0 30 1] [0] 1 0
r 0.410130011 _0_ MAC  --- 0 ACK 38 [0 0 0 0] 
s 0.410420011 _0_ MAC  --- 0 RTS 44 [b7e 1 0 0] 
r 0.410772519 _1_ MAC  --- 0 RTS 44 [b7e 1 0 0] 
s 0.410782519 _1_ MAC  --- 0 CTS 38 [a44 0 0 0] 
r 0.411087028 _0_ MAC  --- 0 CTS 38 [a44 0 0 0] 
s 0.411097028 _0_ MAC  --- 2 cbr 288 [13a 1 0 800] ------- [0:0 1:0 30 1] [2] 0 0
s 0.411250000 _0_ AGT  --- 3 cbr 210 [0 0 0 0] ------- [0:0 1:0 32 0] [3] 0 0
r 0.411250000 _0_ RTR  --- 3 cbr 210 [0 0 0 0] ------- [0:0 1:0 32 0] [3] 0 0
s 0.411250000 _0_ RTR  --- 3 cbr 230 [0 0 0 0] ------- [0:0 1:0 30 1] [3] 0 0
r 0.413401537 _1_ MAC  --- 2 cbr 230 [13a 1 0 800] ------- [0:0 1:0 30 1] [2] 1 0
s 0.413411537 _1_ MAC  --- 0 ACK 38 [0 0 0 0] 
r 0.413426537 _1_ AGT  --- 2 cbr 230 [13a 1 0 800] ------- [0:0 1:0 30 1] [2] 1 0
r 0.413716049 _0_ MAC  --- 0 ACK 38 [0 0 0 0] 
s 0.414126049 _0_ MAC  --- 0 RTS 44 [b7e 1 0 0] 
r 0.414478562 _1_ MAC  --- 0 RTS 44 [b7e 1 0 0] 
s 0.414488562 _1_ MAC  --- 0 CTS 38 [a44 0 0 0] 
r 0.414793076 _0_ MAC  --- 0 CTS 38 [a44 0 0 0] 
s 0.414803076 _0_ MAC  --- 3 cbr 288 [13a 1 0 800] ------- [0:0 1:0 30 1] [3] 0 0
s 0.415000000 _0_ AGT  --- 4 cbr 210 [0 0 0 0] ------- [0:0 1:0 32 0] [4] 0 0
r 0.415000000 _0_ RTR  --- 4 cbr 210 [0 0 0 0] ------- [0:0 1:0 32 0] [4] 0 0
s 0.415000000 _0_ RTR  --- 4 cbr 230 [0 0 0 0] ------- [0:0 1:0 30 1] [4] 0 0
s 0.416334992 _0_ RTR  --- 1 cbr 230 [0 0 0 0] ------- [0:0 1:0 30 1] [1] 0 0
r 0.417107590 _1_ MAC  --- 3 cbr 230 [13a 1 0 800] ------- [0:0 1:0 30 1] [3] 1 0
s 0.417117590 _1_ MAC  --- 0 ACK 38 [0 0 0 0] 
r 0.417132590 _1_ AGT  --- 3 cbr 230 [13a 1 0 800] ------- [0:0 1:0 30 1] [3] 1 0
r 0.417422107 _0_ MAC  --- 0 ACK 38 [0 0 0 0] 
s 0.417732107 _0_ MAC  --- 0 RTS 44 [b7e 1 0 0] 
r 0.418084625 _1_ MAC  --- 0 RTS 44 [b7e 1 0 0] 
s 0.418094625 _1_ MAC  --- 0 CTS 38 [a44 0 0 0] 
r 0.418399143 _0_ MAC  --- 0 CTS 38 [a44 0 0 0] 
s 0.418409143 _0_ MAC  --- 4 cbr 288 [13a 1 0 800] ------- [0:0 1:0 30 1] [4] 0 0
s 0.418750000 _0_ AGT  --- 5 cbr 210 [0 0 0 0] ------- [0:0 1:0 32 0] [5] 0 0
r 0.418750000 _0_ RTR  --- 5 cbr 210 [0 0 0 0] ------- [0:0 1:0 32 0] [5] 0 0
s 0.418750000 _0_ RTR  --- 5 cbr 230 [0 0 0 0] ------- [0:0 1:0 30 1] [5] 0 0
r 0.420713662 _1_ MAC  --- 4 cbr 230 [13a 1 0 800] ------- [0:0 1:0 30 1] [4] 1 0
s 0.420723662 _1_ MAC  --- 0 ACK 38 [0 0 0 0] 
r 0.420738662 _1_ AGT  --- 4 cbr 230 [13a 1 0 800] ------- [0:0 1:0 30 1] [4] 1 0
r 0.421028184 _0_ MAC  --- 0 ACK 38 [0 0 0 0] 
s 0.421318184 _0_ MAC  --- 0 RTS 44 [b7e 1 0 0] 
r 0.421670707 _1_ MAC  --- 0 RTS 44 [b7e 1 0 0] 
s 0.421680707 _1_ MAC  --- 0 CTS 38 [a44 0 0 0] 
r 0.421985230 _0_ MAC  --- 0 CTS 38 [a44 0 0 0] 
s 0.421995230 _0_ MAC  --- 1 cbr 288 [13a 1 0 800] ------- [0:0 1:0 30 1] [1] 0 0
s 0.422500000 _0_ AGT  --- 6 cbr 210 [0 0 0 0] ------- [0:0 1:0 32 0] [6] 0 0
r 0.422500000 _0_ RTR  --- 6 cbr 210 [0 0 0 0] ------- [0:0 1:0 32 0] [6] 0 0
s 0.422500000 _0_ RTR  --- 6 cbr 230 [0 0 0 0] ------- [0:0 1:0 30 1] [6] 0 0
r 0.424299753 _1_ MAC  --- 1 cbr 230 [13a 1 0 800] ------- [0:0 1:0 30 1] [1] 1 0
s 0.424309753 _1_ MAC  --- 0 ACK 38 [0 0 0 0] 
r 0.424324753 _1_ AGT  --- 1 cbr 230 [13a 1 0 800] ------- [0:0 1:0 30 1] [1] 1 0
r 0.424614280 _0_ MAC  --- 0 ACK 38 [0 0 0 0] 
s 0.424704280 _0_ MAC  --- 0 RTS 44 [b7e 1 0 0] 
r 0.425056807 _1_ MAC  --- 0 RTS 44 [b7e 1 0 0] 
s 0.425066807 _1_ MAC  --- 0 CTS 38 [a44 0 0 0] 
r 0.425371335 _0_ MAC  --- 0 CTS 38 [a44 0 0 0] 
s 0.425381335 _0_ MAC  --- 5 cbr 288 [13a 1 0 800] ------- [0:0 1:0 30 1] [5] 0 0
s 0.426250000 _0_ AGT  --- 7 cbr 210 [0 0 0 0] ------- [0:0 1:0 32 0] [7] 0 0
r 0.426250000 _0_ RTR  --- 7 cbr 210 [0 0 0 0] ------- [0:0 1:0 32 0] [7] 0 0
s 0.426250000 _0_ RTR  --- 7 cbr 230 [0 0 0 0] ------- [0:0 1:0 30 1] [7] 0 0
r 0.427685863 _1_ MAC  --- 5 cbr 230 [13a 1 0 800] ------- [0:0 1:0 30 1] [5] 1 0
s 0.427695863 _1_ MAC  --- 0 ACK 38 [0 0 0 0] 
r 0.427710863 _1_ AGT  --- 5 cbr 230 [13a 1 0 800] ------- [0:0 1:0 30 1] [5] 1 0
r 0.428000394 _0_ MAC  --- 0 ACK 38 [0 0 0 0] 
s 0.428590394 _0_ MAC  --- 0 RTS 44 [b7e 1 0 0] 
r 0.428942927 _1_ MAC  --- 0 RTS 44 [b7e 1 0 0] 
s 0.428952927 _1_ MAC  --- 0 CTS 38 [a44 0 0 0] 
r 0.429257460 _0_ MAC  --- 0 CTS 38 [a44 0 0 0] 
s 0.429267460 _0_ MAC  --- 6 cbr 288 [13a 1 0 800] ------- [0:0 1:0 30 1] [6] 0 0
s 0.430000000 _0_ AGT  --- 8 cbr 210 [0 0 0 0] ------- [0:0 1:0 32 0] [8] 0 0
r 0.430000000 _0_ RTR  --- 8 cbr 210 [0 0 0 0] ------- [0:0 1:0 32 0] [8] 0 0
s 0.430000000 _0_ RTR  --- 8 cbr 230 [0 0 0 0] ------- [0:0 1:0 30 1] [8] 0 0
r 0.431571993 _1_ MAC  --- 6 cbr 230 [13a 1 0 800] ------- [0:0 1:0 30 1] [6] 1 0
s 0.431581993 _1_ MAC  --- 0 ACK 38 [0 0 0 0] 
r 0.431596993 _1_ AGT  --- 6 cbr 230 [13a 1 0 800] ------- [0:0 1:0 30 1] [6] 1 0
r 0.431886529 _0_ MAC  --- 0 ACK 38 [0 0 0 0] 
s 0.432096529 _0_ MAC  --- 0 RTS 44 [b7e 1 0 0] 
r 0.432449066 _1_ MAC  --- 0 RTS 44 [b7e 1 0 0] 
s 0.432459066 _1_ MAC  --- 0 CTS 38 [a44 0 0 0] 
r 0.432763604 _0_ MAC  --- 0 CTS 38 [a44 0 0 0] 
s 0.432773604 _0_ MAC  --- 7 cbr 288 [13a 1 0 800] ------- [0:0 1:0 30 1] [7] 0 0
s 0.433750000 _0_ AGT  --- 9 cbr 210 [0 0 0 0] ------- [0:0 1:0 32 0] [9] 0 0
r 0.433750000 _0_ RTR  --- 9 cbr 210 [0 0 0 0] ------- [0:0 1:0 32 0] [9] 0 0
s 0.433750000 _0_ RTR  --- 9 cbr 230 [0 0 0 0] ------- [0:0 1:0 30 1] [9] 0 0
r 0.435078142 _1_ MAC  --- 7 cbr 230 [13a 1 0 800] ------- [0:0 1:0 30 1] [7] 1 0
s 0.435088142 _1_ MAC  --- 0 ACK 38 [0 0 0 0] 
r 0.435103142 _1_ AGT  --- 7 cbr 230 [13a 1 0 800] ------- [0:0 1:0 30 1] [7] 1 0
r 0.435392683 _0_ MAC  --- 0 ACK 38 [0 0 0 0] 
s 0.435802683 _0_ MAC  --- 0 RTS 44 [b7e 1 0 0] 
r 0.436155225 _1_ MAC  --- 0 RTS 44 [b7e 1 0 0] 
s 0.436165225 _1_ MAC  --- 0 CTS 38 [a44 0 0 0] 
r 0.436469768 _0_ MAC  --- 0 CTS 38 [a44 0 0 0] 
s 0.436479768 _0_ MAC  --- 8 cbr 288 [13a 1 0 800] ------- [0:0 1:0 30 1] [8] 0 0
s 0.437500000 _0_ AGT  --- 10 cbr 210 [0 0 0 0] ------- [0:0 1:0 32 0] [10] 0 0
r 0.437500000 _0_ RTR  --- 10 cbr 210 [0 0 0 0] ------- [0:0 1:0 32 0] [10] 0 0
s 0.437500000 _0_ RTR  --- 10 cbr 230 [0 0 0 0] ------- [0:0 1:0 30 1] [10] 0 0
r 0.438784311 _1_ MAC  --- 8 cbr 230 [13a 1 0 800] ------- [0:0 1:0 30 1] [8] 1 0
s 0.438794311 _1_ MAC  --- 0 ACK 38 [0 0 0 0] 
r 0.438809311 _1_ AGT  --- 8 cbr 230 [13a 1 0 800] ------- [0:0 1:0 30 1] [8] 1 0
r 0.439098857 _0_ MAC  --- 0 ACK 38 [0 0 0 0] 
s 0.439388857 _0_ MAC  --- 0 RTS 44 [b7e 1 0 0] 
r 0.439741403 _1_ MAC  --- 0 RTS 44 [b7e 1 0 0] 
s 0.439751403 _1_ MAC  --- 0 CTS 38 [a44 0 0 0] 
r 0.440055951 _0_ MAC  --- 0 CTS 38 [a44 0 0 0] 
s 0.440065951 _0_ MAC  --- 9 cbr 288 [13a 1 0 800] ------- [0:0 1:0 30 1] [9] 0 0
s 0.441250000 _0_ AGT  --- 11 cbr 210 [0 0 0 0] ------- [0:0 1:0 32 0] [11] 0 0
r 0.441250000 _0_ RTR  --- 11 cbr 210 [0 0 0 0] ------- [0:0 1:0 32 0] [11] 0 0
s 0.441250000 _0_ RTR  --- 11 cbr 230 [0 0 0 0] ------- [0:0 1:0 30 1] [11] 0 0
r 0.442370498 _1_ MAC  --- 9 cbr 230 [13a 1 0 800] ------- [0:0 1:0 30 1] [9] 1 0
s 0.442380498 _1_ MAC  --- 0 ACK 38 [0 0 0 0] 
r 0.442395498 _1_ AGT  --- 9 cbr 230 [13a 1 0 800] ------- [0:0 1:0 30 1] [9] 1 0
r 0.442685049 _0_ MAC  --- 0 ACK 38 [0 0 0 0] 
s 0.442895049 _0_ MAC  --- 0 RTS 44 [b7e 1 0 0] 
r 0.443247601 _1_ MAC  --- 0 RTS 44 [b7e 1 0 0] 
s 0.443257601 _1_ MAC  --- 0 CTS 38 [a44 0 0 0] 
r 0.443562153 _0_ MAC  --- 0 CTS 38 [a44 0 0 0] 
s 0.443572153 _0_ MAC  --- 10 cbr 288 [13a 1 0 800] ------- [0:0 1:0 30 1] [10] 0 0
s 0.445000000 _0_ AGT  --- 12 cbr 210 [0 0 0 0] ------- [0:0 1:0 32 0] [12] 0 0
r 0.445000000 _0_ RTR  --- 12 cbr 210 [0 0 0 0] ------- [0:0 1:0 32 0] [12] 0 0
s 0.445000000 _0_ RTR  --- 12 cbr 230 [0 0 0 0] ------- [0:0 1:0 30 1] [12] 0 0
r 0.445876705 _1_ MAC  --- 10 cbr 230 [13a 1 0 800] ------- [0:0 1:0 30 1] [10] 1 0
s 0.445886705 _1_ MAC  --- 0 ACK 38 [0 0 0 0] 
r 0.445901705 _1_ AGT  --- 10 cbr 230 [13a 1 0 800] ------- [0:0 1:0 30 1] [10] 1 0
r 0.446191260 _0_ MAC  --- 0 ACK 38 [0 0 0 0] 
s 0.446721260 _0_ MAC  --- 0 RTS 44 [b7e 1 0 0] 
r 0.447073817 _1_ MAC  --- 0 RTS 44 [b7e 1 0 0] 
s 0.447083817 _1_ MAC  --- 0 CTS 38 [a44 0 0 0] 
r 0.447388374 _0_ MAC  --- 0 CTS 38 [a44 0 0 0] 
s 0.447398374 _0_ MAC  --- 11 cbr 288 [13a 1 0 800] ------- [0:0 1:0 30 1] [11] 0 0
s 0.448750000 _0_ AGT  --- 13 cbr 210 [0 0 0 0] ------- [0:0 1:0 32 0] [13] 0 0
r 0.448750000 _0_ RTR  --- 13 cbr 210 [0 0 0 0] ------- [0:0 1:0 32 0] [13] 0 0
s 0.448750000 _0_ RTR  --- 13 cbr 230 [0 0 0 0] ------- [0:0 1:0 30 1] [13] 0 0
r 0.449702931 _1_ MAC  --- 11 cbr 230 [13a 1 0 800] ------- [0:0 1:0 30 1] [11] 1 0
s 0.449712931 _1_ MAC  --- 0 ACK 38 [0 0 0 0] 
r 0.449727931 _1_ AGT  --- 11 cbr 230 [13a 1 0 800] ------- [0:0 1:0 30 1] [11] 1 0
r 0.450017492 _0_ MAC  --- 0 ACK 38 [0 0 0 0] 
s 0.450407492 _0_ MAC  --- 0 RTS 44 [b7e 1 0 0] 
r 0.450760054 _1_ MAC  --- 0 RTS 44 [b7e 1 0 0] 
s 0.450770054 _1_ MAC  --- 0 CTS 38 [a44 0 0 0] 
r 0.451074616 _0_ MAC  --- 0 CTS 38 [a44 0 0 0] 
s 0.451084616 _0_ MAC  --- 12 cbr 288 [13a 1 0 800] ------- [0:0 1:0 30 1] [12] 0 0
s 0.452500000 _0_ AGT  --- 14 cbr 210 [0 0 0 0] ------- [0:0 1:0 32 0] [14] 0 0
r 0.452500000 _0_ RTR  --- 14 cbr 210 [0 0 0 0] ------- [0:0 1:0 32 0] [14] 0 0
s 0.452500000 _0_ RTR  --- 14 cbr 230 [0 0 0 0] ------- [0:0 1:0 30 1] [14] 0 0
r 0.453389178 _1_ MAC  --- 12 cbr 230 [13a 1 0 800] ------- [0:0 1:0 30 1] [12] 1 0
s 0.453399178 _1_ MAC  --- 0 ACK 38 [0 0 0 0] 
r 0.453414178 _1_ AGT  --- 12 cbr 230 [13a 1 0 800] ------- [0:0 1:0 30 1] [12] 1 0
r 0.453703743 _0_ MAC  --- 0 ACK 38 [0 0 0 0] 
s 0.454073743 _0_ MAC  --- 0 RTS 44 [b7e 1 0 0] 
r 0.454426310 _1_ MAC  --- 0 RTS 44 [b7e 1 0 0] 
s 0.454436310 _1_ MAC  --- 0 CTS 38 [a44 0 0 0] 
r 0.454740877 _0_ MAC  --- 0 CTS 38 [a44 0 0 0] 
s 0.454750877 _0_ MAC  --- 13 cbr 288 [13a 1 0 800] ------- [0:0 1:0 30 1] [13] 0 0
s 0.456250000 _0_ AGT  --- 15 cbr 210 [0 0 0 0] ------- [0:0 1:0 32 0] [15] 0 0
r 0.456250000 _0_ RTR  --- 15 cbr 210 [0 0 0 0] ------- [0:0 1:0 32 0] [15] 0 0
s 0.456250000 _0_ RTR  --- 15 cbr 230 [0 0 0 0] ------- [0:0 1:0 30 1] [15] 0 0
r 0.457055444 _1_ MAC  --- 13 cbr 230 [13a 1 0 800] ------- [0:0 1:0 30 1] [13] 1 0
s 0.457065444 _1_ MAC  --- 0 ACK 38 [0 0 0 0] 
r 0.457080444 _1_ AGT  --- 13 cbr 230 [13a 1 0 800] ------- [0:0 1:0 30 1] [13] 1 0
r 0.457370014 _0_ MAC  --- 0 ACK 38 [0 0 0 0] 
s 0.457620014 _0_ MAC  --- 0 RTS 44 [b7e 1 0 0] 
r 0.457972585 _1_ MAC  --- 0 RTS 44 [b7e 1 0 0] 
s 0.457982585 _1_ MAC  --- 0 CTS 38 [a44 0 0 0] 
r 0.458287157 _0_ MAC  --- 0 CTS 38 [a44 0 0 0] 
s 0.458297157 _0_ MAC  --- 14 cbr 288 [13a 1 0 800] ------- [0:0 1:0 30 1] [14] 0 0
s 0.460000000 _0_ AGT  --- 16 cbr 210 [0 0 0 0] ------- [0:0 1:0 32 0] [16] 0 0
r 0.460000000 _0_ RTR  --- 16 cbr 210 [0 0 0 0] ------- [0:0 1:0 32 0] [16] 0 0
s 0.460000000 _0_ RTR  --- 16 cbr 230 [0 0 0 0] ------- [0:0 1:0 30 1] [16] 0 0
r 0.460601729 _1_ MAC  --- 14 cbr 230 [13a 1 0 800] ------- [0:0 1:0 30 1] [14] 1 0
s 0.460611729 _1_ MAC  --- 0 ACK 38 [0 0 0 0] 
r 0.460626729 _1_ AGT  --- 14 cbr 230 [13a 1 0 800] ------- [0:0 1:0 30 1] [14] 1 0
r 0.460916304 _0_ MAC  --- 0 ACK 38 [0 0 0 0] 
s 0.461186304 _0_ MAC  --- 0 RTS 44 [b7e 1 0 0] 
r 0.461538880 _1_ MAC  --- 0 RTS 44 [b7e 1 0 0] 
s 0.461548880 _1_ MAC  --- 0 CTS 38 [a44 0 0 0] 
r 0.461853456 _0_ MAC  --- 0 CTS 38 [a44 0 0 0] 
s 0.461863456 _0_ MAC  --- 15 cbr 288 [13a 1 0 800] ------- [0:0 1:0 30 1] [15] 0 0
s 0.463750000 _0_ AGT  --- 17 cbr 210 [0 0 0 0] ------- [0:0 1:0 32 0] [17] 0 0
r 0.463750000 _0_ RTR  --- 17 cbr 210 [0 0 0 0] ------- [0:0 1:0 32 0] [17] 0 0
s 0.463750000 _0_ RTR  --- 17 cbr 230 [0 0 0 0] ------- [0:0 1:0 30 1] [17] 0 0
r 0.464168033 _1_ MAC  --- 15 cbr 230 [13a 1 0 800] ------- [0:0 1:0 30 1] [15] 1 0
s 0.464178033 _1_ MAC  --- 0 ACK 38 [0 0 0 0] 
r 0.464193033 _1_ AGT  --- 15 cbr 230 [13a 1 0 800] ------- [0:0 1:0 30 1] [15] 1 0
r 0.464482613 _0_ MAC  --- 0 ACK 38 [0 0 0 0] 
s 0.464552613 _0_ MAC  --- 0 RTS 44 [b7e 1 0 0] 
r 0.464905193 _1_ MAC  --- 0 RTS 44 [b7e 1 0 0] 
s 0.464915193 _1_ MAC  --- 0 CTS 38 [a44 0 0 0] 
r 0.465219774 _0_ MAC  --- 0 CTS 38 [a44 0 0 0] 
s 0.465229774 _0_ MAC  --- 16 cbr 288 [13a 1 0 800] ------- [0:0 1:0 30 1] [16] 0 0
s 0.467500000 _0_ AGT  --- 18 cbr 210 [0 0 0 0] ------- [0:0 1:0 32 0] [18] 0 0
r 0.467500000 _0_ RTR  --- 18 cbr 210 [0 0 0 0] ------- [0:0 1:0 32 0] [18] 0 0
s 0.467500000 _0_ RTR  --- 18 cbr 230 [0 0 0 0] ------- [0:0 1:0 30 1] [18] 0 0
r 0.467534355 _1_ MAC  --- 16 cbr 230 [13a 1 0 800] ------- [0:0 1:0 30 1] [16] 1 0
s 0.467544355 _1_ MAC  --- 0 ACK 38 [0 0 0 0] 
r 0.467559355 _1_ AGT  --- 16 cbr 230 [13a 1 0 800] ------- [0:0 1:0 30 1] [16] 1 0
r 0.467848940 _0_ MAC  --- 0 ACK 38 [0 0 0 0] 
s 0.468138940 _0_ MAC  --- 0 RTS 44 [b7e 1 0 0] 
r 0.468491525 _1_ MAC  --- 0 RTS 44 [b7e 1 0 0] 
s 0.468501525 _1_ MAC  --- 0 CTS 38 [a44 0 0 0] 
r 0.468806110 _0_ MAC  --- 0 CTS 38 [a44 0 0 0] 
s 0.468816110 _0_ MAC  --- 17 cbr 288 [13a 1 0 800] ------- [0:0 1:0 30 1] [17] 0 0
r 0.471120696 _1_ MAC  --- 17 cbr 230 [13a 1 0 800] ------- [0:0 1:0 30 1] [17] 1 0
s 0.471130696 _1_ MAC  --- 0 ACK 38 [0 0 0 0] 
r 0.471145696 _1_ AGT  --- 17 cbr 230 [13a 1 0 800] ------- [0:0 1:0 30 1] [17] 1 0
s 0.471250000 _0_ AGT  --- 19 cbr 210 [0 0 0 0] ------- [0:0 1:0 32 0] [19] 0 0
r 0.471250000 _0_ RTR  --- 19 cbr 210 [0 0 0 0] ------- [0:0 1:0 32 0] [19] 0 0
s 0.471250000 _0_ RTR  --- 19 cbr 230 [0 0 0 0] ------- [0:0 1:0 30 1] [19] 0 0
r 0.471435286 _0_ MAC  --- 0 ACK 38 [0 0 0 0] 
s 0.471925286 _0_ MAC  --- 0 RTS 44 [b7e 1 0 0] 
r 0.472277876 _1_ MAC  --- 0 RTS 44 [b7e 1 0 0] 
s 0.472287876 _1_ MAC  --- 0 CTS 38 [a44 0 0 0] 
r 0.472592466 _0_ MAC  --- 0 CTS 38 [a44 0 0 0] 
s 0.472602466 _0_ MAC  --- 18 cbr 288 [13a 1 0 800] ------- [0:0 1:0 30 1] [18] 0 0
r 0.474907058 _1_ MAC  --- 18 cbr 230 [13a 1 0 800] ------- [0:0 1:0 30 1] [18] 1 0
s 0.474917058 _1_ MAC  --- 0 ACK 38 [0 0 0 0] 
r 0.474932058 _1_ AGT  --- 18 cbr 230 [13a 1 0 800] ------- [0:0 1:0 30 1] [18] 1 0
s 0.475000000 _0_ AGT  --- 20 cbr 210 [0 0 0 0] ------- [0:0 1:0 32 0] [20] 0 0
r 0.475000000 _0_ RTR  --- 20 cbr 210 [0 0 0 0] ------- [0:0 1:0 32 0] [20] 0 0
s 0.475000000 _0_ RTR  --- 20 cbr 230 [0 0 0 0] ------- [0:0 1:0 30 1] [20] 0 0
r 0.475221652 _0_ MAC  --- 0 ACK 38 [0 0 0 0] 
s 0.475451652 _0_ MAC  --- 0 RTS 44 [b7e 1 0 0] 
r 0.475804247 _1_ MAC  --- 0 RTS 44 [b7e 1 0 0] 
s 0.475814247 _1_ MAC  --- 0 CTS 38 [a44 0 0 0] 
r 0.476118842 _0_ MAC  --- 0 CTS 38 [a44 0 0 0] 
s 0.476128842 _0_ MAC  --- 19 cbr 288 [13a 1 0 800] ------- [0:0 1:0 30 1] [19] 0 0
r 0.478433438 _1_ MAC  --- 19 cbr 230 [13a 1 0 800] ------- [0:0 1:0 30 1] [19] 1 0
s 0.478443438 _1_ MAC  --- 0 ACK 38 [0 0 0 0] 
r 0.478458438 _1_ AGT  --- 19 cbr 230 [13a 1 0 800] ------- [0:0 1:0 30 1] [19] 1 0
r 0.478748037 _0_ MAC  --- 0 ACK 38 [0 0 0 0] 
s 0.478750000 _0_ AGT  --- 21 cbr 210 [0 0 0 0] ------- [0:0 1:0 32 0] [21] 0 0
r 0.478750000 _0_ RTR  --- 21 cbr 210 [0 0 0 0] ------- [0:0 1:0 32 0] [21] 0 0
s 0.478750000 _0_ RTR  --- 21 cbr 230 [0 0 0 0] ------- [0:0 1:0 30 1] [21] 0 0
s 0.479378037 _0_ MAC  --- 0 RTS 44 [b7e 1 0 0] 
r 0.479730637 _1_ MAC  --- 0 RTS 44 [b7e 1 0 0] 
s 0.479740637 _1_ MAC  --- 0 CTS 38 [a44 0 0 0] 
r 0.480045237 _0_ MAC  --- 0 CTS 38 [a44 0 0 0] 
s 0.480055237 _0_ MAC  --- 20 cbr 288 [13a 1 0 800] ------- [0:0 1:0 30 1] [20] 0 0
r 0.482359838 _1_ MAC  --- 20 cbr 230 [13a 1 0 800] ------- [0:0 1:0 30 1] [20] 1 0
s 0.482369838 _1_ MAC  --- 0 ACK 38 [0 0 0 0] 
r 0.482384838 _1_ AGT  --- 20 cbr 230 [13a 1 0 800] ------- [0:0 1:0 30 1] [20] 1 0
s 0.482500000 _0_ AGT  --- 22 cbr 210 [0 0 0 0] ------- [0:0 1:0 32 0] [22] 0 0
r 0.482500000 _0_ RTR  --- 22 cbr 210 [0 0 0 0] ------- [0:0 1:0 32 0] [22] 0 0
s 0.482500000 _0_ RTR  --- 22 cbr 230 [0 0 0 0] ------- [0:0 1:0 30 1] [22] 0 0
r 0.482674442 _0_ MAC  --- 0 ACK 38 [0 0 0 0] 
s 0.483124442 _0_ MAC  --- 0 RTS 44 [b7e 1 0 0] 
r 0.483477048 _1_ MAC  --- 0 RTS 44 [b7e 1 0 0] 
s 0.483487048 _1_ MAC  --- 0 CTS 38 [a44 0 0 0] 
r 0.483791653 _0_ MAC  --- 0 CTS 38 [a44 0 0 0] 
s 0.483801653 _0_ MAC  --- 21 cbr 288 [13a 1 0 800] ------- [0:0 1:0 30 1] [21] 0 0
r 0.486106259 _1_ MAC  --- 21 cbr 230 [13a 1 0 800] ------- [0:0 1:0 30 1] [21] 1 0
s 0.486116259 _1_ MAC  --- 0 ACK 38 [0 0 0 0] 
r 0.486131259 _1_ AGT  --- 21 cbr 230 [13a 1 0 800] ------- [0:0 1:0 30 1] [21] 1 0
s 0.486250000 _0_ AGT  --- 23 cbr 210 [0 0 0 0] ------- [0:0 1:0 32 0] [23] 0 0
r 0.486250000 _0_ RTR  --- 23 cbr 210 [0 0 0 0] ------- [0:0 1:0 32 0] [23] 0 0
s 0.486250000 _0_ RTR  --- 23 cbr 230 [0 0 0 0] ------- [0:0 1:0 30 1] [23] 0 0
r 0.486420868 _0_ MAC  --- 0 ACK 38 [0 0 0 0] 
s 0.487010868 _0_ MAC  --- 0 RTS 44 [b7e 1 0 0] 
r 0.487363479 _1_ MAC  --- 0 RTS 44 [b7e 1 0 0] 
s 0.487373479 _1_ MAC  --- 0 CTS 38 [a44 0 0 0] 
r 0.487678089 _0_ MAC  --- 0 CTS 38 [a44 0 0 0] 
s 0.487688089 _0_ MAC  --- 22 cbr 288 [13a 1 0 800] ------- [0:0 1:0 30 1] [22] 0 0
r 0.489992701 _1_ MAC  --- 22 cbr 230 [13a 1 0 800] ------- [0:0 1:0 30 1] [22] 1 0
s 0.490000000 _0_ AGT  --- 24 cbr 210 [0 0 0 0] ------- [0:0 1:0 32 0] [24] 0 0
r 0.490000000 _0_ RTR  --- 24 cbr 210 [0 0 0 0] ------- [0:0 1:0 32 0] [24] 0 0
s 0.490000000 _0_ RTR  --- 24 cbr 230 [0 0 0 0] ------- [0:0 1:0 30 1] [24] 0 0
s 0.490002701 _1_ MAC  --- 0 ACK 38 [0 0 0 0] 
r 0.490017701 _1_ AGT  --- 22 cbr 230 [13a 1 0 800] ------- [0:0 1:0 30 1] [22] 1 0
r 0.490307315 _0_ MAC  --- 0 ACK 38 [0 0 0 0] 
s 0.490717315 _0_ MAC  --- 0 RTS 44 [b7e 1 0 0] 
r 0.491069930 _1_ MAC  --- 0 RTS 44 [b7e 1 0 0] 
s 0.491079930 _1_ MAC  --- 0 CTS 38 [a44 0 0 0] 
r 0.491384546 _0_ MAC  --- 0 CTS 38 [a44 0 0 0] 
s 0.491394546 _0_ MAC  --- 23 cbr 288 [13a 1 0 800] ------- [0:0 1:0 30 1] [23] 0 0
r 0.493699162 _1_ MAC  --- 23 cbr 230 [13a 1 0 800] ------- [0:0 1:0 30 1] [23] 1 0
s 0.493709162 _1_ MAC  --- 0 ACK 38 [0 0 0 0] 
r 0.493724162 _1_ AGT  --- 23 cbr 230 [13a 1 0 800] ------- [0:0 1:0 30 1] [23] 1 0
s 0.493750000 _0_ AGT  --- 25 cbr 210 [0 0 0 0] ------- [0:0 1:0 32 0] [25] 0 0
r 0.493750000 _0_ RTR  --- 25 cbr 210 [0 0 0 0] ------- [0:0 1:0 32 0] [25] 0 0
s 0.493750000 _0_ RTR  --- 25 cbr 230 [0 0 0 0] ------- [0:0 1:0 30 1] [25] 0 0
r 0.494013781 _0_ MAC  --- 0 ACK 38 [0 0 0 0] 
s 0.494103781 _0_ MAC  --- 0 RTS 44 [b7e 1 0 0] 
r 0.494456401 _1_ MAC  --- 0 RTS 44 [b7e 1 0 0] 
s 0.494466401 _1_ MAC  --- 0 CTS 38 [a44 0 0 0] 
r 0.494771021 _0_ MAC  --- 0 CTS 38 [a44 0 0 0] 
s 0.494781021 _0_ MAC  --- 24 cbr 288 [13a 1 0 800] ------- [0:0 1:0 30 1] [24] 0 0
r 0.497085642 _1_ MAC  --- 24 cbr 230 [13a 1 0 800] ------- [0:0 1:0 30 1] [24] 1 0
s 0.497095642 _1_ MAC  --- 0 ACK 38 [0 0 0 0] 
r 0.497110642 _1_ AGT  --- 24 cbr 230 [13a 1 0 800] ------- [0:0 1:0 30 1] [24] 1 0
r 0.497400266 _0_ MAC  --- 0 ACK 38 [0 0 0 0] 
s 0.497500000 _0_ AGT  --- 26 cbr 210 [0 0 0 0] ------- [0:0 1:0 32 0] [26] 0 0
r 0.497500000 _0_ RTR  --- 26 cbr 210 [0 0 0 0] ------- [0:0 1:0 32 0] [26] 0 0
s 0.497500000 _0_ RTR  --- 26 cbr 230 [0 0 0 0] ------- [0:0 1:0 30 1] [26] 0 0
s 0.497750266 _0_ MAC  --- 0 RTS 44 [b7e 1 0 0] 
r 0.498102890 _1_ MAC  --- 0 RTS 44 [b7e 1 0 0] 
s 0.498112890 _1_ MAC  --- 0 CTS 38 [a44 0 0 0] 
r 0.498417515 _0_ MAC  --- 0 CTS 38 [a44 0 0 0] 
s 0.498427515 _0_ MAC  --- 25 cbr 288 [13a 1 0 800] ------- [0:0 1:0 30 1] [25] 0 0
r 0.500732141 _1_ MAC  --- 25 cbr 230 [13a 1 0 800] ------- [0:0 1:0 30 1] [25] 1 0
s 0.500742141 _1_ MAC  --- 0 ACK 38 [0 0 0 0] 
r 0.500757141 _1_ AGT  --- 25 cbr 230 [13a 1 0 800] ------- [0:0 1:0 30 1] [25] 1 0
r 0.501046769 _0_ MAC  --- 0 ACK 38 [0 0 0 0] 
s 0.501250000 _0_ AGT  --- 27 cbr 210 [0 0 0 0] ------- [0:0 1:0 32 0] [27] 0 0
r 0.501250000 _0_ RTR  --- 27 cbr 210 [0 0 0 0] ------- [0:0 1:0 32 0] [27] 0 0
s 0.501250000 _0_ RTR  --- 27 cbr 230 [0 0 0 0] ------- [0:0 1:0 30 1] [27] 0 0
s 0.501456769 _0_ MAC  --- 0 RTS 44 [b7e 1 0 0] 
r 0.501809399 _1_ MAC  --- 0 RTS 44 [b7e 1 0 0] 
s 0.501819399 _1_ MAC  --- 0 CTS 38 [a44 0 0 0] 
r 0.502124029 _0_ MAC  --- 0 CTS 38 [a44 0 0 0] 
s 0.502134029 _0_ MAC  --- 26 cbr 288 [13a 1 0 800] ------- [0:0 1:0 30 1] [26] 0 0
r 0.504438659 _1_ MAC  --- 26 cbr 230 [13a 1 0 800] ------- [0:0 1:0 30 1] [26] 1 0
s 0.504448659 _1_ MAC  --- 0 ACK 38 [0 0 0 0] 
r 0.504463659 _1_ AGT  --- 26 cbr 230 [13a 1 0 800] ------- [0:0 1:0 30 1] [26] 1 0
r 0.504753293 _0_ MAC  --- 0 ACK 38 [0 0 0 0] 
s 0.504943293 _0_ MAC  --- 0 RTS 44 [b7e 1 0 0] 
s 0.505000000 _0_ AGT  --- 28 cbr 210 [0 0 0 0] ------- [0:0 1:0 32 0] [28] 0 0
r 0.505000000 _0_ RTR  --- 28 cbr 210 [0 0 0 0] ------- [0:0 1:0 32 0] [28] 0 0
s 0.505000000 _0_ RTR  --- 28 cbr 230 [0 0 0 0] ------- [0:0 1:0 30 1] [28] 0 0
r 0.505295927 _1_ MAC  --- 0 RTS 44 [b7e 1 0 0] 
s 0.505305927 _1_ MAC  --- 0 CTS 38 [a44 0 0 0] 
r 0.505610562 _0_ MAC  --- 0 CTS 38 [a44 0 0 0] 
s 0.505620562 _0_ MAC  --- 27 cbr 288 [13a 1 0 800] ------- [0:0 1:0 30 1] [27] 0 0
r 0.507925197 _1_ MAC  --- 27 cbr 230 [13a 1 0 800] ------- [0:0 1:0 30 1] [27] 1 0
s 0.507935197 _1_ MAC  --- 0 ACK 38 [0 0 0 0] 
r 0.507950197 _1_ AGT  --- 27 cbr 230 [13a 1 0 800] ------- [0:0 1:0 30 1] [27] 1 0
r 0.508239835 _0_ MAC  --- 0 ACK 38 [0 0 0 0] 
s 0.508369835 _0_ MAC  --- 0 RTS 44 [b7e 1 0 0] 
r 0.508722474 _1_ MAC  --- 0 RTS 44 [b7e 1 0 0] 
s 0.508732474 _1_ MAC  --- 0 CTS 38 [a44 0 0 0] 
s 0.508750000 _0_ AGT  --- 29 cbr 210 [0 0 0 0] ------- [0:0 1:0 32 0] [29] 0 0
r 0.508750000 _0_ RTR  --- 29 cbr 210 [0 0 0 0] ------- [0:0 1:0 32 0] [29] 0 0
s 0.508750000 _0_ RTR  --- 29 cbr 230 [0 0 0 0] ------- [0:0 1:0 30 1] [29] 0 0
r 0.509037113 _0_ MAC  --- 0 CTS 38 [a44 0 0 0] 
s 0.509047113 _0_ MAC  --- 28 cbr 288 [13a 1 0 800] ------- [0:0 1:0 30 1] [28] 0 0
r 0.511351753 _1_ MAC  --- 28 cbr 230 [13a 1 0 800] ------- [0:0 1:0 30 1] [28] 1 0
s 0.511361753 _1_ MAC  --- 0 ACK 38 [0 0 0 0] 
r 0.511376753 _1_ AGT  --- 28 cbr 230 [13a 1 0 800] ------- [0:0 1:0 30 1] [28] 1 0
r 0.511666396 _0_ MAC  --- 0 ACK 38 [0 0 0 0] 
s 0.511996396 _0_ MAC  --- 0 RTS 44 [b7e 1 0 0] 
r 0.512349039 _1_ MAC  --- 0 RTS 44 [b7e 1 0 0] 
s 0.512359039 _1_ MAC  --- 0 CTS 38 [a44 0 0 0] 
s 0.512500000 _0_ AGT  --- 30 cbr 210 [0 0 0 0] ------- [0:0 1:0 32 0] [30] 0 0
r 0.512500000 _0_ RTR  --- 30 cbr 210 [0 0 0 0] ------- [0:0 1:0 32 0] [30] 0 0
s 0.512500000 _0_ RTR  --- 30 cbr 230 [0 0 0 0] ------- [0:0 1:0 30 1] [30] 0 0
r 0.512663683 _0_ MAC  --- 0 CTS 38 [a44 0 0 0] 
s 0.512673683 _0_ MAC  --- 29 cbr 288 [13a 1 0 800] ------- [0:0 1:0 30 1] [29] 0 0
r 0.514978328 _1_ MAC  --- 29 cbr 230 [13a 1 0 800] ------- [0:0 1:0 30 1] [29] 1 0
s 0.514988328 _1_ MAC  --- 0 ACK 38 [0 0 0 0] 
r 0.515003328 _1_ AGT  --- 29 cbr 230 [13a 1 0 800] ------- [0:0 1:0 30 1] [29] 1 0
r 0.515292975 _0_ MAC  --- 0 ACK 38 [0 0 0 0] 
s 0.515542975 _0_ MAC  --- 0 RTS 44 [b7e 1 0 0] 
r 0.515895624 _1_ MAC  --- 0 RTS 44 [b7e 1 0 0] 
s 0.515905624 _1_ MAC  --- 0 CTS 38 [a44 0 0 0] 
r 0.516210273 _0_ MAC  --- 0 CTS 38 [a44 0 0 0] 
s 0.516220273 _0_ MAC  --- 30 cbr 288 [13a 1 0 800] ------- [0:0 1:0 30 1] [30] 0 0
s 0.516250000 _0_ AGT  --- 31 cbr 210 [0 0 0 0] ------- [0:0 1:0 32 0] [31] 0 0
r 0.516250000 _0_ RTR  --- 31 cbr 210 [0 0 0 0] ------- [0:0 1:0 32 0] [31] 0 0
s 0.516250000 _0_ RTR  --- 31 cbr 230 [0 0 0 0] ------- [0:0 1:0 30 1] [31] 0 0
r 0.518524922 _1_ MAC  --- 30 cbr 230 [13a 1 0 800] ------- [0:0 1:0 30 1] [30] 1 0
s 0.518534922 _1_ MAC  --- 0 ACK 38 [0 0 0 0] 
r 0.518549922 _1_ AGT  --- 30 cbr 230 [13a 1 0 800] ------- [0:0 1:0 30 1] [30] 1 0
r 0.518839574 _0_ MAC  --- 0 ACK 38 [0 0 0 0] 
s 0.518989574 _0_ MAC  --- 0 RTS 44 [b7e 1 0 0] 
r 0.519342227 _1_ MAC  --- 0 RTS 44 [b7e 1 0 0] 
s 0.519352227 _1_ MAC  --- 0 CTS 38 [a44 0 0 0] 
r 0.519656881 _0_ MAC  --- 0 CTS 38 [a44 0 0 0] 
s 0.519666881 _0_ MAC  --- 31 cbr 288 [13a 1 0 800] ------- [0:0 1:0 30 1] [31] 0 0
s 0.520000000 _0_ AGT  --- 32 cbr 210 [0 0 0 0] ------- [0:0 1:0 32 0] [32] 0 0
r 0.520000000 _0_ RTR  --- 32 cbr 210 [0 0 0 0] ------- [0:0 1:0 32 0] [32] 0 0
s 0.520000000 _0_ RTR  --- 32 cbr 230 [0 0 0 0] ------- [0:0 1:0 30 1] [32] 0 0
r 0.521971534 _1_ MAC  --- 31 cbr 230 [13a 1 0 800] ------- [0:0 1:0 30 1] [31] 1 0
s 0.521981534 _1_ MAC  --- 0 ACK 38 [0 0 0 0] 
r 0.521996534 _1_ AGT  --- 31 cbr 230 [13a 1 0 800] ------- [0:0 1:0 30 1] [31] 1 0
r 0.522286191 _0_ MAC  --- 0 ACK 38 [0 0 0 0] 
s 0.522856191 _0_ MAC  --- 0 RTS 44 [b7e 1 0 0] 
r 0.523208849 _1_ MAC  --- 0 RTS 44 [b7e 1 0 0] 
s 0.523218849 _1_ MAC  --- 0 CTS 38 [a44 0 0 0] 
r 0.523523508 _0_ MAC  --- 0 CTS 38 [a44 0 0 0] 
s 0.523533508 _0_ MAC  --- 32 cbr 288 [13a 1 0 800] ------- [0:0 1:0 30 1] [32] 0 0
s 0.523750000 _0_ AGT  --- 33 cbr 210 [0 0 0 0] ------- [0:0 1:0 32 0] [33] 0 0
r 0.523750000 _0_ RTR  --- 33 cbr 210 [0 0 0 0] ------- [0:0 1:0 32 0] [33] 0 0
s 0.523750000 _0_ RTR  --- 33 cbr 230 [0 0 0 0] ------- [0:0 1:0 30 1] [33] 0 0
r 0.525838167 _1_ MAC  --- 32 cbr 230 [13a 1 0 800] ------- [0:0 1:0 30 1] [32] 1 0
s 0.525848167 _1_ MAC  --- 0 ACK 38 [0 0 0 0] 
r 0.525863167 _1_ AGT  --- 32 cbr 230 [13a 1 0 800] ------- [0:0 1:0 30 1] [32] 1 0
r 0.526152829 _0_ MAC  --- 0 ACK 38 [0 0 0 0] 
s 0.526422829 _0_ MAC  --- 0 RTS 44 [b7e 1 0 0] 
r 0.526775492 _1_ MAC  --- 0 RTS 44 [b7e 1 0 0] 
s 0.526785492 _1_ MAC  --- 0 CTS 38 [a44 0 0 0] 
r 0.527090155 _0_ MAC  --- 0 CTS 38 [a44 0 0 0] 
s 0.527100155 _0_ MAC  --- 33 cbr 288 [13a 1 0 800] ------- [0:0 1:0 30 1] [33] 0 0
s 0.527500000 _0_ AGT  --- 34 cbr 210 [0 0 0 0] ------- [0:0 1:0 32 0] [34] 0 0
r 0.527500000 _0_ RTR  --- 34 cbr 210 [0 0 0 0] ------- [0:0 1:0 32 0] [34] 0 0
s 0.527500000 _0_ RTR  --- 34 cbr 230 [0 0 0 0] ------- [0:0 1:0 30 1] [34] 0 0
r 0.529404819 _1_ MAC  --- 33 cbr 230 [13a 1 0 800] ------- [0:0 1:0 30 1] [33] 1 0
s 0.529414819 _1_ MAC  --- 0 ACK 38 [0 0 0 0] 
r 0.529429819 _1_ AGT  --- 33 cbr 230 [13a 1 0 800] ------- [0:0 1:0 30 1] [33] 1 0
r 0.529719486 _0_ MAC  --- 0 ACK 38 [0 0 0 0] 
s 0.529969486 _0_ MAC  --- 0 RTS 44 [b7e 1 0 0] 
r 0.530322153 _1_ MAC  --- 0 RTS 44 [b7e 1 0 0] 
s 0.530332153 _1_ MAC  --- 0 CTS 38 [a44 0 0 0] 
r 0.530636821 _0_ MAC  --- 0 CTS 38 [a44 0 0 0] 
s 0.530646821 _0_ MAC  --- 34 cbr 288 [13a 1 0 800] ------- [0:0 1:0 30 1] [34] 0 0
s 0.531250000 _0_ AGT  --- 35 cbr 210 [0 0 0 0] ------- [0:0 1:0 32 0] [35] 0 0
r 0.531250000 _0_ RTR  --- 35 cbr 210 [0 0 0 0] ------- [0:0 1:0 32 0] [35] 0 0
s 0.531250000 _0_ RTR  --- 35 cbr 230 [0 0 0 0] ------- [0:0 1:0 30 1] [35] 0 0
r 0.532951490 _1_ MAC  --- 34 cbr 230 [13a 1 0 800] ------- [0:0 1:0 30 1] [34] 1 0
s 0.532961490 _1_ MAC  --- 0 ACK 38 [0 0 0 0] 
r 0.532976490 _1_ AGT  --- 34 cbr 230 [13a 1 0 800] ------- [0:0 1:0 30 1] [34] 1 0
r 0.533266161 _0_ MAC  --- 0 ACK 38 [0 0 0 0] 
s 0.533896161 _0_ MAC  --- 0 RTS 44 [b7e 1 0 0] 
r 0.534248834 _1_ MAC  --- 0 RTS 44 [b7e 1 0 0] 
s 0.534258834 _1_ MAC  --- 0 CTS 38 [a44 0 0 0] 
r 0.534563508 _0_ MAC  --- 0 CTS 38 [a44 0 0 0] 
s 0.534573508 _0_ MAC  --- 35 cbr 288 [13a 1 0 800] ------- [0:0 1:0 30 1] [35] 0 0
s 0.535000000 _0_ AGT  --- 36 cbr 210 [0 0 0 0] ------- [0:0 1:0 32 0] [36] 0 0
r 0.535000000 _0_ RTR  --- 36 cbr 210 [0 0 0 0] ------- [0:0 1:0 32 0] [36] 0 0
s 0.535000000 _0_ RTR  --- 36 cbr 230 [0 0 0 0] ------- [0:0 1:0 30 1] [36] 0 0
r 0.536878181 _1_ MAC  --- 35 cbr 230 [13a 1 0 800] ------- [0:0 1:0 30 1] [35] 1 0
s 0.536888181 _1_ MAC  --- 0 ACK 38 [0 0 0 0] 