n -t * -s 0  -x 10 -y 10 -Z 0 -z 20  -v circle -c black
n -t * -s 1  -x 30 -y 30 -Z 0 -z 20  -v circle -c black
V -t * -v 1.0a5 -a 0
W -t * -x 500 -y 500
A -t * -n 1 -p 0 -o 0x7fffffff -c 30 -a 1
A -t * -h 1 -m 1073741823 -s 0
n -t 0.100000 -s 1 -x 30.000000 -y 30.000000 -U 282.842712 -V 282.842712 -T 1.131371
+ -t 0.400000000 -s 0 -d -1 -p cbr -e 210 -c 2 -a 0 -i 0 -k AGT 
- -t 0.400000000 -s 0 -d -1 -p cbr -e 210 -c 2 -a 0 -i 0 -k AGT
h -t 0.400000000 -s 0 -d -1 -p cbr -e 210 -c 2 -a 0 -i 0 -k AGT
+ -t 0.400000000 -s 0 -d -1 -p AODV -e 48 -c 2 -a 0 -i 0 -k RTR 
- -t 0.400000000 -s 0 -d -1 -p AODV -e 48 -c 2 -a 0 -i 0 -k RTR
h -t 0.400000000 -s 0 -d -1 -p AODV -e 48 -c 2 -a 0 -i 0 -k RTR
+ -t 0.400535000 -s 0 -d -1 -p AODV -e 106 -c 2 -a 0 -i 0 -k MAC 
- -t 0.400535000 -s 0 -d -1 -p AODV -e 106 -c 2 -a 0 -i 0 -k MAC
h -t 0.400535000 -s 0 -d -1 -p AODV -e 106 -c 2 -a 0 -i 0 -k MAC
r -t 0.401383495 -s 1 -d -1 -p AODV -e 48 -c 2 -a 0 -i 0 -k MAC
r -t 0.401408495 -s 1 -d -1 -p AODV -e 48 -c 2 -a 0 -i 0 -k RTR
+ -t 0.401408495 -s 1 -d 0 -p AODV -e 44 -c 2 -a 0 -i 0 -k RTR 
- -t 0.401408495 -s 1 -d 0 -p AODV -e 44 -c 2 -a 0 -i 0 -k RTR
h -t 0.401408495 -s 1 -d 0 -p AODV -e 44 -c 2 -a 0 -i 0 -k RTR
+ -t 0.402023495 -s 1 -d -1 -p ARP -e 86 -c 2 -a 0 -i 0 -k MAC 
- -t 0.402023495 -s 1 -d -1 -p ARP -e 86 -c 2 -a 0 -i 0 -k MAC
h -t 0.402023495 -s 1 -d -1 -p ARP -e 86 -c 2 -a 0 -i 0 -k MAC
r -t 0.402711992 -s 0 -d -1 -p ARP -e 28 -c 2 -a 0 -i 0 -k MAC
+ -t 0.403086992 -s 0 -d -1 -p RTS -e 44 -c 2 -a 0 -i 0 -k MAC 
- -t 0.403086992 -s 0 -d -1 -p RTS -e 44 -c 2 -a 0 -i 0 -k MAC
h -t 0.403086992 -s 0 -d -1 -p RTS -e 44 -c 2 -a 0 -i 0 -k MAC
r -t 0.403439490 -s 1 -d -1 -p RTS -e 44 -c 2 -a 0 -i 0 -k MAC
+ -t 0.403449490 -s 1 -d -1 -p CTS -e 38 -c 2 -a 0 -i 0 -k MAC 
- -t 0.403449490 -s 1 -d -1 -p CTS -e 38 -c 2 -a 0 -i 0 -k MAC
h -t 0.403449490 -s 1 -d -1 -p CTS -e 38 -c 2 -a 0 -i 0 -k MAC
+ -t 0.403750000 -s 0 -d -1 -p cbr -e 210 -c 2 -a 0 -i 1 -k AGT 
- -t 0.403750000 -s 0 -d -1 -p cbr -e 210 -c 2 -a 0 -i 1 -k AGT
h -t 0.403750000 -s 0 -d -1 -p cbr -e 210 -c 2 -a 0 -i 1 -k AGT
r -t 0.403753989 -s 0 -d -1 -p CTS -e 38 -c 2 -a 0 -i 0 -k MAC
+ -t 0.403763989 -s 0 -d -1 -p ARP -e 86 -c 2 -a 0 -i 0 -k MAC 
- -t 0.403763989 -s 0 -d -1 -p ARP -e 86 -c 2 -a 0 -i 0 -k MAC
h -t 0.403763989 -s 0 -d -1 -p ARP -e 86 -c 2 -a 0 -i 0 -k MAC
r -t 0.404452489 -s 1 -d -1 -p ARP -e 28 -c 2 -a 0 -i 0 -k MAC
+ -t 0.404462489 -s 1 -d -1 -p ACK -e 38 -c 2 -a 0 -i 0 -k MAC 
- -t 0.404462489 -s 1 -d -1 -p ACK -e 38 -c 2 -a 0 -i 0 -k MAC
h -t 0.404462489 -s 1 -d -1 -p ACK -e 38 -c 2 -a 0 -i 0 -k MAC
r -t 0.404766989 -s 0 -d -1 -p ACK -e 38 -c 2 -a 0 -i 0 -k MAC
+ -t 0.404816489 -s 1 -d -1 -p RTS -e 44 -c 2 -a 0 -i 0 -k MAC 
- -t 0.404816489 -s 1 -d -1 -p RTS -e 44 -c 2 -a 0 -i 0 -k MAC
h -t 0.404816489 -s 1 -d -1 -p RTS -e 44 -c 2 -a 0 -i 0 -k MAC
r -t 0.405168989 -s 0 -d -1 -p RTS -e 44 -c 2 -a 0 -i 0 -k MAC
+ -t 0.405178989 -s 0 -d -1 -p CTS -e 38 -c 2 -a 0 -i 0 -k MAC 
- -t 0.405178989 -s 0 -d -1 -p CTS -e 38 -c 2 -a 0 -i 0 -k MAC
h -t 0.405178989 -s 0 -d -1 -p CTS -e 38 -c 2 -a 0 -i 0 -k MAC
r -t 0.405483490 -s 1 -d -1 -p CTS -e 38 -c 2 -a 0 -i 0 -k MAC
+ -t 0.405493490 -s 1 -d 0 -p AODV -e 102 -c 2 -a 0 -i 0 -k MAC 
- -t 0.405493490 -s 1 -d 0 -p AODV -e 102 -c 2 -a 0 -i 0 -k MAC
h -t 0.405493490 -s 1 -d 0 -p AODV -e 102 -c 2 -a 0 -i 0 -k MAC
r -t 0.406309992 -s 0 -d 0 -p AODV -e 44 -c 2 -a 0 -i 0 -k MAC
+ -t 0.406319992 -s 0 -d -1 -p ACK -e 38 -c 2 -a 0 -i 0 -k MAC 
- -t 0.406319992 -s 0 -d -1 -p ACK -e 38 -c 2 -a 0 -i 0 -k MAC
h -t 0.406319992 -s 0 -d -1 -p ACK -e 38 -c 2 -a 0 -i 0 -k MAC
+ -t 0.406334992 -s 0 -d 1 -p cbr -e 230 -c 2 -a 0 -i 0 -k RTR 
- -t 0.406334992 -s 0 -d 1 -p cbr -e 230 -c 2 -a 0 -i 0 -k RTR
h -t 0.406334992 -s 0 -d 1 -p cbr -e 230 -c 2 -a 0 -i 0 -k RTR
r -t 0.406624495 -s 1 -d -1 -p ACK -e 38 -c 2 -a 0 -i 0 -k MAC
+ -t 0.406833992 -s 0 -d -1 -p RTS -e 44 -c 2 -a 0 -i 0 -k MAC 
- -t 0.406833992 -s 0 -d -1 -p RTS -e 44 -c 2 -a 0 -i 0 -k MAC
h -t 0.406833992 -s 0 -d -1 -p RTS -e 44 -c 2 -a 0 -i 0 -k MAC
r -t 0.407186495 -s 1 -d -1 -p RTS -e 44 -c 2 -a 0 -i 0 -k MAC
+ -t 0.407196495 -s 1 -d -1 -p CTS -e 38 -c 2 -a 0 -i 0 -k MAC 
- -t 0.407196495 -s 1 -d -1 -p CTS -e 38 -c 2 -a 0 -i 0 -k MAC
h -t 0.407196495 -s 1 -d -1 -p CTS -e 38 -c 2 -a 0 -i 0 -k MAC
+ -t 0.407500000 -s 0 -d -1 -p cbr -e 210 -c 2 -a 0 -i 2 -k AGT 
- -t 0.407500000 -s 0 -d -1 -p cbr -e 210 -c 2 -a 0 -i 2 -k AGT
h -t 0.407500000 -s 0 -d -1 -p cbr -e 210 -c 2 -a 0 -i 2 -k AGT
+ -t 0.407500000 -s 0 -d 1 -p cbr -e 230 -c 2 -a 0 -i 2 -k RTR 
- -t 0.407500000 -s 0 -d 1 -p cbr -e 230 -c 2 -a 0 -i 2 -k RTR
h -t 0.407500000 -s 0 -d 1 -p cbr -e 230 -c 2 -a 0 -i 2 -k RTR
r -t 0.407500999 -s 0 -d -1 -p CTS -e 38 -c 2 -a 0 -i 0 -k MAC
+ -t 0.407510999 -s 0 -d 1 -p cbr -e 288 -c 2 -a 0 -i 0 -k MAC 
- -t 0.407510999 -s 0 -d 1 -p cbr -e 288 -c 2 -a 0 -i 0 -k MAC
h -t 0.407510999 -s 0 -d 1 -p cbr -e 288 -c 2 -a 0 -i 0 -k MAC
r -t 0.409815504 -s 1 -d 1 -p cbr -e 230 -c 2 -a 0 -i 0 -k MAC
+ -t 0.409825504 -s 1 -d -1 -p ACK -e 38 -c 2 -a 0 -i 0 -k MAC 
- -t 0.409825504 -s 1 -d -1 -p ACK -e 38 -c 2 -a 0 -i 0 -k MAC
h -t 0.409825504 -s 1 -d -1 -p ACK -e 38 -c 2 -a 0 -i 0 -k MAC
r -t 0.409840504 -s 1 -d 1 -p cbr -e 230 -c 2 -a 0 -i 0 -k AGT
r -t 0.410130011 -s 0 -d -1 -p ACK -e 38 -c 2 -a 0 -i 0 -k MAC
+ -t 0.410420011 -s 0 -d -1 -p RTS -e 44 -c 2 -a 0 -i 0 -k MAC 
- -t 0.410420011 -s 0 -d -1 -p RTS -e 44 -c 2 -a 0 -i 0 -k MAC
h -t 0.410420011 -s 0 -d -1 -p RTS -e 44 -c 2 -a 0 -i 0 -k MAC
r -t 0.410772519 -s 1 -d -1 -p RTS -e 44 -c 2 -a 0 -i 0 -k MAC
+ -t 0.410782519 -s 1 -d -1 -p CTS -e 38 -c 2 -a 0 -i 0 -k MAC 
- -t 0.410782519 -s 1 -d -1 -p CTS -e 38 -c 2 -a 0 -i 0 -k MAC
h -t 0.410782519 -s 1 -d -1 -p CTS -e 38 -c 2 -a 0 -i 0 -k MAC
r -t 0.411087028 -s 0 -d -1 -p CTS -e 38 -c 2 -a 0 -i 0 -k MAC
+ -t 0.411097028 -s 0 -d 1 -p cbr -e 288 -c 2 -a 0 -i 2 -k MAC 
- -t 0.411097028 -s 0 -d 1 -p cbr -e 288 -c 2 -a 0 -i 2 -k MAC
h -t 0.411097028 -s 0 -d 1 -p cbr -e 288 -c 2 -a 0 -i 2 -k MAC
+ -t 0.411250000 -s 0 -d -1 -p cbr -e 210 -c 2 -a 0 -i 3 -k AGT 
- -t 0.411250000 -s 0 -d -1 -p cbr -e 210 -c 2 -a 0 -i 3 -k AGT
h -t 0.411250000 -s 0 -d -1 -p cbr -e 210 -c 2 -a 0 -i 3 -k AGT
+ -t 0.411250000 -s 0 -d 1 -p cbr -e 230 -c 2 -a 0 -i 3 -k RTR 
- -t 0.411250000 -s 0 -d 1 -p cbr -e 230 -c 2 -a 0 -i 3 -k RTR
h -t 0.411250000 -s 0 -d 1 -p cbr -e 230 -c 2 -a 0 -i 3 -k RTR
r -t 0.413401537 -s 1 -d 1 -p cbr -e 230 -c 2 -a 0 -i 2 -k MAC
+ -t 0.413411537 -s 1 -d -1 -p ACK -e 38 -c 2 -a 0 -i 0 -k MAC 
- -t 0.413411537 -s 1 -d -1 -p ACK -e 38 -c 2 -a 0 -i 0 -k MAC
h -t 0.413411537 -s 1 -d -1 -p ACK -e 38 -c 2 -a 0 -i 0 -k MAC
r -t 0.413426537 -s 1 -d 1 -p cbr -e 230 -c 2 -a 0 -i 2 -k AGT
r -t 0.413716049 -s 0 -d -1 -p ACK -e 38 -c 2 -a 0 -i 0 -k MAC
+ -t 0.414126049 -s 0 -d -1 -p RTS -e 44 -c 2 -a 0 -i 0 -k MAC 
- -t 0.414126049 -s 0 -d -1 -p RTS -e 44 -c 2 -a 0 -i 0 -k MAC
h -t 0.414126049 -s 0 -d -1 -p RTS -e 44 -c 2 -a 0 -i 0 -k MAC
r -t 0.414478562 -s 1 -d -1 -p RTS -e 44 -c 2 -a 0 -i 0 -k MAC
+ -t 0.414488562 -s 1 -d -1 -p CTS -e 38 -c 2 -a 0 -i 0 -k MAC 
- -t 0.414488562 -s 1 -d -1 -p CTS -e 38 -c 2 -a 0 -i 0 -k MAC
h -t 0.414488562 -s 1 -d -1 -p CTS -e 38 -c 2 -a 0 -i 0 -k MAC
r -t 0.414793076 -s 0 -d -1 -p CTS -e 38 -c 2 -a 0 -i 0 -k MAC
+ -t 0.414803076 -s 0 -d 1 -p cbr -e 288 -c 2 -a 0 -i 3 -k MAC 
- -t 0.414803076 -s 0 -d 1 -p cbr -e 288 -c 2 -a 0 -i 3 -k MAC
h -t 0.414803076 -s 0 -d 1 -p cbr -e 288 -c 2 -a 0 -i 3 -k MAC
+ -t 0.415000000 -s 0 -d -1 -p cbr -e 210 -c 2 -a 0 -i 4 -k AGT 
- -t 0.415000000 -s 0 -d -1 -p cbr -e 210 -c 2 -a 0 -i 4 -k AGT
h -t 0.415000000 -s 0 -d -1 -p cbr -e 210 -c 2 -a 0 -i 4 -k AGT
+ -t 0.415000000 -s 0 -d 1 -p cbr -e 230 -c 2 -a 0 -i 4 -k RTR 
- -t 0.415000000 -s 0 -d 1 -p cbr -e 230 -c 2 -a 0 -i 4 -k RTR
h -t 0.415000000 -s 0 -d 1 -p cbr -e 230 -c 2 -a 0 -i 4 -k RTR
+ -t 0.416334992 -s 0 -d 1 -p cbr -e 230 -c 2 -a 0 -i 1 -k RTR 
- -t 0.416334992 -s 0 -d 1 -p cbr -e 230 -c 2 -a 0 -i 1 -k RTR
h -t 0.416334992 -s 0 -d 1 -p cbr -e 230 -c 2 -a 0 -i 1 -k RTR
r -t 0.417107590 -s 1 -d 1 -p cbr -e 230 -c 2 -a 0 -i 3 -k MAC
+ -t 0.417117590 -s 1 -d -1 -p ACK -e 38 -c 2 -a 0 -i 0 -k MAC 
- -t 0.417117590 -s 1 -d -1 -p ACK -e 38 -c 2 -a 0 -i 0 -k MAC
h -t 0.417117590 -s 1 -d -1 -p ACK -e 38 -c 2 -a 0 -i 0 -k MAC
r -t 0.417132590 -s 1 -d 1 -p cbr -e 230 -c 2 -a 0 -i 3 -k AGT
r -t 0.417422107 -s 0 -d -1 -p ACK -e 38 -c 2 -a 0 -i 0 -k MAC
+ -t 0.417732107 -s 0 -d -1 -p RTS -e 44 -c 2 -a 0 -i 0 -k MAC 
- -t 0.417732107 -s 0 -d -1 -p RTS -e 44 -c 2 -a 0 -i 0 -k MAC
h -t 0.417732107 -s 0 -d -1 -p RTS -e 44 -c 2 -a 0 -i 0 -k MAC
r -t 0.418084625 -s 1 -d -1 -p RTS -e 44 -c 2 -a 0 -i 0 -k MAC
+ -t 0.418094625 -s 1 -d -1 -p CTS -e 38 -c 2 -a 0 -i 0 -k MAC 
- -t 0.418094625 -s 1 -d -1 -p CTS -e 38 -c 2 -a 0 -i 0 -k MAC
h -t 0.418094625 -s 1 -d -1 -p CTS -e 38 -c 2 -a 0 -i 0 -k MAC
r -t 0.418399143 -s 0 -d -1 -p CTS -e 38 -c 2 -a 0 -i 0 -k MAC
+ -t 0.418409143 -s 0 -d 1 -p cbr -e 288 -c 2 -a 0 -i 4 -k MAC 
- -t 0.418409143 -s 0 -d 1 -p cbr -e 288 -c 2 -a 0 -i 4 -k MAC
h -t 0.418409143 -s 0 -d 1 -p cbr -e 288 -c 2 -a 0 -i 4 -k MAC
+ -t 0.418750000 -s 0 -d -1 -p cbr -e 210 -c 2 -a 0 -i 5 -k AGT 
- -t 0.418750000 -s 0 -d -1 -p cbr -e 210 -c 2 -a 0 -i 5 -k AGT
h -t 0.418750000 -s 0 -d -1 -p cbr -e 210 -c 2 -a 0 -i 5 -k AGT
+ -t 0.418750000 -s 0 -d 1 -p cbr -e 230 -c 2 -a 0 -i 5 -k RTR 
- -t 0.418750000 -s 0 -d 1 -p cbr -e 230 -c 2 -a 0 -i 5 -k RTR
h -t 0.418750000 -s 0 -d 1 -p cbr -e 230 -c 2 -a 0 -i 5 -k RTR
r -t 0.420713662 -s 1 -d 1 -p cbr -e 230 -c 2 -a 0 -i 4 -k MAC
+ -t 0.420723662 -s 1 -d -1 -p ACK -e 38 -c 2 -a 0 -i 0 -k MAC 
- -t 0.420723662 -s 1 -d -1 -p ACK -e 38 -c 2 -a 0 -i 0 -k MAC
h -t 0.420723662 -s 1 -d -1 -p ACK -e 38 -c 2 -a 0 -i 0 -k MAC
r -t 0.420738662 -s 1 -d 1 -p cbr -e 230 -c 2 -a 0 -i 4 -k AGT
r -t 0.421028184 -s 0 -d -1 -p ACK -e 38 -c 2 -a 0 -i 0 -k MAC
+ -t 0.421318184 -s 0 -d -1 -p RTS -e 44 -c 2 -a 0 -i 0 -k MAC 
- -t 0.421318184 -s 0 -d -1 -p RTS -e 44 -c 2 -a 0 -i 0 -k MAC
h -t 0.421318184 -s 0 -d -1 -p RTS -e 44 -c 2 -a 0 -i 0 -k MAC
r -t 0.421670707 -s 1 -d -1 -p RTS -e 44 -c 2 -a 0 -i 0 -k MAC
+ -t 0.421680707 -s 1 -d -1 -p CTS -e 38 -c 2 -a 0 -i 0 -k MAC 
- -t 0.421680707 -s 1 -d -1 -p CTS -e 38 -c 2 -a 0 -i 0 -k MAC
h -t 0.421680707 -s 1 -d -1 -p CTS -e 38 -c 2 -a 0 -i 0 -k MAC
r -t 0.421985230 -s 0 -d -1 -p CTS -e 38 -c 2 -a 0 -i 0 -k MAC
+ -t 0.421995230 -s 0 -d 1 -p cbr -e 288 -c 2 -a 0 -i 1 -k MAC 
- -t 0.421995230 -s 0 -d 1 -p cbr -e 288 -c 2 -a 0 -i 1 -k MAC
h -t 0.421995230 -s 0 -d 1 -p cbr -e 288 -c 2 -a 0 -i 1 -k MAC
+ -t 0.422500000 -s 0 -d -1 -p cbr -e 210 -c 2 -a 0 -i 6 -k AGT 
- -t 0.422500000 -s 0 -d -1 -p cbr -e 210 -c 2 -a 0 -i 6 -k AGT
h -t 0.422500000 -s 0 -d -1 -p cbr -e 210 -c 2 -a 0 -i 6 -k AGT
+ -t 0.422500000 -s 0 -d 1 -p cbr -e 230 -c 2 -a 0 -i 6 -k RTR 
- -t 0.422500000 -s 0 -d 1 -p cbr -e 230 -c 2 -a 0 -i 6 -k RTR
h -t 0.422500000 -s 0 -d 1 -p cbr -e 230 -c 2 -a 0 -i 6 -k RTR
r -t 0.424299753 -s 1 -d 1 -p cbr -e 230 -c 2 -a 0 -i 1 -k MAC
+ -t 0.424309753 -s 1 -d -1 -p ACK -e 38 -c 2 -a 0 -i 0 -k MAC 
- -t 0.424309753 -s 1 -d -1 -p ACK -e 38 -c 2 -a 0 -i 0 -k MAC
h -t 0.424309753 -s 1 -d -1 -p ACK -e 38 -c 2 -a 0 -i 0 -k MAC
r -t 0.424324753 -s 1 -d 1 -p cbr -e 230 -c 2 -a 0 -i 1 -k AGT
r -t 0.424614280 -s 0 -d -1 -p ACK -e 38 -c 2 -a 0 -i 0 -k MAC
+ -t 0.424704280 -s 0 -d -1 -p RTS -e 44 -c 2 -a 0 -i 0 -k MAC 
- -t 0.424704280 -s 0 -d -1 -p RTS -e 44 -c 2 -a 0 -i 0 -k MAC
h -t 0.424704280 -s 0 -d -1 -p RTS -e 44 -c 2 -a 0 -i 0 -k MAC
r -t 0.425056807 -s 1 -d -1 -p RTS -e 44 -c 2 -a 0 -i 0 -k MAC
+ -t 0.425066807 -s 1 -d -1 -p CTS -e 38 -c 2 -a 0 -i 0 -k MAC 
- -t 0.425066807 -s 1 -d -1 -p CTS -e 38 -c 2 -a 0 -i 0 -k MAC
h -t 0.425066807 -s 1 -d -1 -p CTS -e 38 -c 2 -a 0 -i 0 -k MAC
r -t 0.425371335 -s 0 -d -1 -p CTS -e 38 -c 2 -a 0 -i 0 -k MAC
+ -t 0.425381335 -s 0 -d 1 -p cbr -e 288 -c 2 -a 0 -i 5 -k MAC 
- -t 0.425381335 -s 0 -d 1 -p cbr -e 288 -c 2 -a 0 -i 5 -k MAC
h -t 0.425381335 -s 0 -d 1 -p cbr -e 288 -c 2 -a 0 -i 5 -k MAC
+ -t 0.426250000 -s 0 -d -1 -p cbr -e 210 -c 2 -a 0 -i 7 -k AGT 
- -t 0.426250000 -s 0 -d -1 -p cbr -e 210 -c 2 -a 0 -i 7 -k AGT
h -t 0.426250000 -s 0 -d -1 -p cbr -e 210 -c 2 -a 0 -i 7 -k AGT
+ -t 0.426250000 -s 0 -d 1 -p cbr -e 230 -c 2 -a 0 -i 7 -k RTR 
- -t 0.426250000 -s 0 -d 1 -p cbr -e 230 -c 2 -a 0 -i 7 -k RTR
h -t 0.426250000 -s 0 -d 1 -p cbr -e 230 -c 2 -a 0 -i 7 -k RTR
r -t 0.427685863 -s 1 -d 1 -p cbr -e 230 -c 2 -a 0 -i 5 -k MAC
+ -t 0.427695863 -s 1 -d -1 -p ACK -e 38 -c 2 -a 0 -i 0 -k MAC 
- -t 0.427695863 -s 1 -d -1 -p ACK -e 38 -c 2 -a 0 -i 0 -k MAC
h -t 0.427695863 -s 1 -d -1 -p ACK -e 38 -c 2 -a 0 -i 0 -k MAC
r -t 0.427710863 -s 1 -d 1 -p cbr -e 230 -c 2 -a 0 -i 5 -k AGT
r -t 0.428000394 -s 0 -d -1 -p ACK -e 38 -c 2 -a 0 -i 0 -k MAC
+ -t 0.428590394 -s 0 -d -1 -p RTS -e 44 -c 2 -a 0 -i 0 -k MAC 
- -t 0.428590394 -s 0 -d -1 -p RTS -e 44 -c 2 -a 0 -i 0 -k MAC
h -t 0.428590394 -s 0 -d -1 -p RTS -e 44 -c 2 -a 0 -i 0 -k MAC
r -t 0.428942927 -s 1 -d -1 -p RTS -e 44 -c 2 -a 0 -i 0 -k MAC
+ -t 0.428952927 -s 1 -d -1 -p CTS -e 38 -c 2 -a 0 -i 0 -k MAC 
- -t 0.428952927 -s 1 -d -1 -p CTS -e 38 -c 2 -a 0 -i 0 -k MAC
h -t 0.428952927 -s 1 -d -1 -p CTS -e 38 -c 2 -a 0 -i 0 -k MAC
r -t 0.429257460 -s 0 -d -1 -p CTS -e 38 -c 2 -a 0 -i 0 -k MAC
+ -t 0.429267460 -s 0 -d 1 -p cbr -e 288 -c 2 -a 0 -i 6 -k MAC 
- -t 0.429267460 -s 0 -d 1 -p cbr -e 288 -c 2 -a 0 -i 6 -k MAC
h -t 0.429267460 -s 0 -d 1 -p cbr -e 288 -c 2 -a 0 -i 6 -k MAC
+ -t 0.430000000 -s 0 -d -1 -p cbr -e 210 -c 2 -a 0 -i 8 -k AGT 
- -t 0.430000000 -s 0 -d -1 -p cbr -e 210 -c 2 -a 0 -i 8 -k AGT
h -t 0.430000000 -s 0 -d -1 -p cbr -e 210 -c 2 -a 0 -i 8 -k AGT
+ -t 0.430000000 -s 0 -d 1 -p cbr -e 230 -c 2 -a 0 -i 8 -k RTR 
- -t 0.430000000 -s 0 -d 1 -p cbr -e 230 -c 2 -a 0 -i 8 -k RTR
h -t 0.430000000 -s 0 -d 1 -p cbr -e 230 -c 2 -a 0 -i 8 -k RTR
r -t 0.431571993 -s 1 -d 1 -p cbr -e 230 -c 2 -a 0 -i 6 -k MAC
+ -t 0.431581993 -s 1 -d -1 -p ACK -e 38 -c 2 -a 0 -i 0 -k MAC 
- -t 0.431581993 -s 1 -d -1 -p ACK -e 38 -c 2 -a 0 -i 0 -k MAC
h -t 0.431581993 -s 1 -d -1 -p ACK -e 38 -c 2 -a 0 -i 0 -k MAC
r -t 0.431596993 -s 1 -d 1 -p cbr -e 230 -c 2 -a 0 -i 6 -k AGT
r -t 0.431886529 -s 0 -d -1 -p ACK -e 38 -c 2 -a 0 -i 0 -k MAC
+ -t 0.432096529 -s 0 -d -1 -p RTS -e 44 -c 2 -a 0 -i 0 -k MAC 
- -t 0.432096529 -s 0 -d -1 -p RTS -e 44 -c 2 -a 0 -i 0 -k MAC
h -t 0.432096529 -s 0 -d -1 -p RTS -e 44 -c 2 -a 0 -i 0 -k MAC
r -t 0.432449066 -s 1 -d -1 -p RTS -e 44 -c 2 -a 0 -i 0 -k MAC
+ -t 0.432459066 -s 1 -d -1 -p CTS -e 38 -c 2 -a 0 -i 0 -k MAC 
- -t 0.432459066 -s 1 -d -1 -p CTS -e 38 -c 2 -a 0 -i 0 -k MAC
h -t 0.432459066 -s 1 -d -1 -p CTS -e 38 -c 2 -a 0 -i 0 -k MAC
r -t 0.432763604 -s 0 -d -1 -p CTS -e 38 -c 2 -a 0 -i 0 -k MAC
+ -t 0.432773604 -s 0 -d 1 -p cbr -e 288 -c 2 -a 0 -i 7 -k MAC 
- -t 0.432773604 -s 0 -d 1 -p cbr -e 288 -c 2 -a 0 -i 7 -k MAC
h -t 0.432773604 -s 0 -d 1 -p cbr -e 288 -c 2 -a 0 -i 7 -k MAC
+ -t 0.433750000 -s 0 -d -1 -p cbr -e 210 -c 2 -a 0 -i 9 -k AGT 
- -t 0.433750000 -s 0 -d -1 -p cbr -e 210 -c 2 -a 0 -i 9 -k AGT
h -t 0.433750000 -s 0 -d -1 -p cbr -e 210 -c 2 -a 0 -i 9 -k AGT
+ -t 0.433750000 -s 0 -d 1 -p cbr -e 230 -c 2 -a 0 -i 9 -k RTR 
- -t 0.433750000 -s 0 -d 1 -p cbr -e 230 -c 2 -a 0 -i 9 -k RTR
h -t 0.433750000 -s 0 -d 1 -p cbr -e 230 -c 2 -a 0 -i 9 -k RTR
r -t 0.435078142 -s 1 -d 1 -p cbr -e 230 -c 2 -a 0 -i 7 -k MAC
+ -t 0.435088142 -s 1 -d -1 -p ACK -e 38 -c 2 -a 0 -i 0 -k MAC 
- -t 0.435088142 -s 1 -d -1 -p ACK -e 38 -c 2 -a 0 -i 0 -k MAC
h -t 0.435088142 -s 1 -d -1 -p ACK -e 38 -c 2 -a 0 -i 0 -k MAC
r -t 0.435103142 -s 1 -d 1 -p cbr -e 230 -c 2 -a 0 -i 7 -k AGT
r -t 0.435392683 -s 0 -d -1 -p ACK -e 38 -c 2 -a 0 -i 0 -k MAC
+ -t 0.435802683 -s 0 -d -1 -p RTS -e 44 -c 2 -a 0 -i 0 -k MAC 
- -t 0.435802683 -s 0 -d -1 -p RTS -e 44 -c 2 -a 0 -i 0 -k MAC
h -t 0.435802683 -s 0 -d -1 -p RTS -e 44 -c 2 -a 0 -i 0 -k MAC
r -t 0.436155225 -s 1 -d -1 -p RTS -e 44 -c 2 -a 0 -i 0 -k MAC
+ -t 0.436165225 -s 1 -d -1 -p CTS -e 38 -c 2 -a 0 -i 0 -k MAC 
- -t 0.436165225 -s 1 -d -1 -p CTS -e 38 -c 2 -a 0 -i 0 -k MAC
h -t 0.436165225 -s 1 -d -1 -p CTS -e 38 -c 2 -a 0 -i 0 -k MAC
r -t 0.436469768 -s 0 -d -1 -p CTS -e 38 -c 2 -a 0 -i 0 -k MAC
+ -t 0.436479768 -s 0 -d 1 -p cbr -e 288 -c 2 -a 0 -i 8 -k MAC 
- -t 0.436479768 -s 0 -d 1 -p cbr -e 288 -c 2 -a 0 -i 8 -k MAC
h -t 0.436479768 -s 0 -d 1 -p cbr -e 288 -c 2 -a 0 -i 8 -k MAC
+ -t 0.437500000 -s 0 -d -1 -p cbr -e 210 -c 2 -a 0 -i 10 -k AGT 
- -t 0.437500000 -s 0 -d -1 -p cbr -e 210 -c 2 -a 0 -i 10 -k AGT
h -t 0.437500000 -s 0 -d -1 -p cbr -e 210 -c 2 -a 0 -i 10 -k AGT
+ -t 0.437500000 -s 0 -d 1 -p cbr -e 230 -c 2 -a 0 -i 10 -k RTR 
- -t 0.437500000 -s 0 -d 1 -p cbr -e 230 -c 2 -a 0 -i 10 -k RTR
h -t 0.437500000 -s 0 -d 1 -p cbr -e 230 -c 2 -a 0 -i 10 -k RTR
r -t 0.438784311 -s 1 -d 1 -p cbr -e 230 -c 2 -a 0 -i 8 -k MAC
+ -t 0.438794311 -s 1 -d -1 -p ACK -e 38 -c 2 -a 0 -i 0 -k MAC 
- -t 0.438794311 -s 1 -d -1 -p ACK -e 38 -c 2 -a 0 -i 0 -k MAC
h -t 0.438794311 -s 1 -d -1 -p ACK -e 38 -c 2 -a 0 -i 0 -k MAC
r -t 0.438809311 -s 1 -d 1 -p cbr -e 230 -c 2 -a 0 -i 8 -k AGT
r -t 0.439098857 -s 0 -d -1 -p ACK -e 38 -c 2 -a 0 -i 0 -k MAC
+ -t 0.439388857 -s 0 -d -1 -p RTS -e 44 -c 2 -a 0 -i 0 -k MAC 
- -t 0.439388857 -s 0 -d -1 -p RTS -e 44 -c 2 -a 0 -i 0 -k MAC
h -t 0.439388857 -s 0 -d -1 -p RTS -e 44 -c 2 -a 0 -i 0 -k MAC
r -t 0.439741403 -s 1 -d -1 -p RTS -e 44 -c 2 -a 0 -i 0 -k MAC
+ -t 0.439751403 -s 1 -d -1 -p CTS -e 38 -c 2 -a 0 -i 0 -k MAC 
- -t 0.439751403 -s 1 -d -1 -p CTS -e 38 -c 2 -a 0 -i 0 -k MAC
h -t 0.439751403 -s 1 -d -1 -p CTS -e 38 -c 2 -a 0 -i 0 -k MAC
r -t 0.440055951 -s 0 -d -1 -p CTS -e 38 -c 2 -a 0 -i 0 -k MAC
+ -t 0.440065951 -s 0 -d 1 -p cbr -e 288 -c 2 -a 0 -i 9 -k MAC 
- -t 0.440065951 -s 0 -d 1 -p cbr -e 288 -c 2 -a 0 -i 9 -k MAC
h -t 0.440065951 -s 0 -d 1 -p cbr -e 288 -c 2 -a 0 -i 9 -k MAC
+ -t 0.441250000 -s 0 -d -1 -p cbr -e 210 -c 2 -a 0 -i 11 -k AGT 
- -t 0.441250000 -s 0 -d -1 -p cbr -e 210 -c 2 -a 0 -i 11 -k AGT
h -t 0.441250000 -s 0 -d -1 -p cbr -e 210 -c 2 -a 0 -i 11 -k AGT
+ -t 0.441250000 -s 0 -d 1 -p cbr -e 230 -c 2 -a 0 -i 11 -k RTR 
- -t 0.441250000 -s 0 -d 1 -p cbr -e 230 -c 2 -a 0 -i 11 -k RTR
h -t 0.441250000 -s 0 -d 1 -p cbr -e 230 -c 2 -a 0 -i 11 -k RTR
r -t 0.442370498 -s 1 -d 1 -p cbr -e 230 -c 2 -a 0 -i 9 -k MAC
+ -t 0.442380498 -s 1 -d -1 -p ACK -e 38 -c 2 -a 0 -i 0 -k MAC 
- -t 0.442380498 -s 1 -d -1 -p ACK -e 38 -c 2 -a 0 -i 0 -k MAC
h -t 0.442380498 -s 1 -d -1 -p ACK -e 38 -c 2 -a 0 -i 0 -k MAC
r -t 0.442395498 -s 1 -d 1 -p cbr -e 230 -c 2 -a 0 -i 9 -k AGT
r -t 0.442685049 -s 0 -d -1 -p ACK -e 38 -c 2 -a 0 -i 0 -k MAC
+ -t 0.442895049 -s 0 -d -1 -p RTS -e 44 -c 2 -a 0 -i 0 -k MAC 
- -t 0.442895049 -s 0 -d -1 -p RTS -e 44 -c 2 -a 0 -i 0 -k MAC
h -t 0.442895049 -s 0 -d -1 -p RTS -e 44 -c 2 -a 0 -i 0 -k MAC
r -t 0.443247601 -s 1 -d -1 -p RTS -e 44 -c 2 -a 0 -i 0 -k MAC
+ -t 0.443257601 -s 1 -d -1 -p CTS -e 38 -c 2 -a 0 -i 0 -k MAC 
- -t 0.443257601 -s 1 -d -1 -p CTS -e 38 -c 2 -a 0 -i 0 -k MAC
h -t 0.443257601 -s 1 -d -1 -p CTS -e 38 -c 2 -a 0 -i 0 -k MAC
r -t 0.443562153 -s 0 -d -1 -p CTS -e 38 -c 2 -a 0 -i 0 -k MAC
+ -t 0.443572153 -s 0 -d 1 -p cbr -e 288 -c 2 -a 0 -i 10 -k MAC 
- -t 0.443572153 -s 0 -d 1 -p cbr -e 288 -c 2 -a 0 -i 10 -k MAC
h -t 0.443572153 -s 0 -d 1 -p cbr -e 288 -c 2 -a 0 -i 10 -k MAC
+ -t 0.445000000 -s 0 -d -1 -p cbr -e 210 -c 2 -a 0 -i 12 -k AGT 
- -t 0.445000000 -s 0 -d -1 -p cbr -e 210 -c 2 -a 0 -i 12 -k AGT
h -t 0.445000000 -s 0 -d -1 -p cbr -e 210 -c 2 -a 0 -i 12 -k AGT
+ -t 0.445000000 -s 0 -d 1 -p cbr -e 230 -c 2 -a 0 -i 12 -k RTR 
- -t 0.445000000 -s 0 -d 1 -p cbr -e 230 -c 2 -a 0 -i 12 -k RTR
h -t 0.445000000 -s 0 -d 1 -p cbr -e 230 -c 2 -a 0 -i 12 -k RTR
r -t 0.445876705 -s 1 -d 1 -p cbr -e 230 -c 2 -a 0 -i 10 -k MAC
+ -t 0.445886705 -s 1 -d -1 -p ACK -e 38 -c 2 -a 0 -i 0 -k MAC 
- -t 0.445886705 -s 1 -d -1 -p ACK -e 38 -c 2 -a 0 -i 0 -k MAC
h -t 0.445886705 -s 1 -d -1 -p ACK -e 38 -c 2 -a 0 -i 0 -k MAC
r -t 0.445901705 -s 1 -d 1 -p cbr -e 230 -c 2 -a 0 -i 10 -k AGT
r -t 0.446191260 -s 0 -d -1 -p ACK -e 38 -c 2 -a 0 -i 0 -k MAC
+ -t 0.446721260 -s 0 -d -1 -p RTS -e 44 -c 2 -a 0 -i 0 -k MAC 
- -t 0.446721260 -s 0 -d -1 -p RTS -e 44 -c 2 -a 0 -i 0 -k MAC
h -t 0.446721260 -s 0 -d -1 -p RTS -e 44 -c 2 -a 0 -i 0 -k MAC
r -t 0.447073817 -s 1 -d -1 -p RTS -e 44 -c 2 -a 0 -i 0 -k MAC
+ -t 0.447083817 -s 1 -d -1 -p CTS -e 38 -c 2 -a 0 -i 0 -k MAC 
- -t 0.447083817 -s 1 -d -1 -p CTS -e 38 -c 2 -a 0 -i 0 -k MAC
h -t 0.447083817 -s 1 -d -1 -p CTS -e 38 -c 2 -a 0 -i 0 -k MAC
r -t 0.447388374 -s 0 -d -1 -p CTS -e 38 -c 2 -a 0 -i 0 -k MAC
+ -t 0.447398374 -s 0 -d 1 -p cbr -e 288 -c 2 -a 0 -i 11 -k MAC 
- -t 0.447398374 -s 0 -d 1 -p cbr -e 288 -c 2 -a 0 -i 11 -k MAC
h -t 0.447398374 -s 0 -d 1 -p cbr -e 288 -c 2 -a 0 -i 11 -k MAC
+ -t 0.448750000 -s 0 -d -1 -p cbr -e 210 -c 2 -a 0 -i 13 -k AGT 
- -t 0.448750000 -s 0 -d -1 -p cbr -e 210 -c 2 -a 0 -i 13 -k AGT
h -t 0.448750000 -s 0 -d -1 -p cbr -e 210 -c 2 -a 0 -i 13 -k AGT
+ -t 0.448750000 -s 0 -d 1 -p cbr -e 230 -c 2 -a 0 -i 13 -k RTR 
- -t 0.448750000 -s 0 -d 1 -p cbr -e 230 -c 2 -a 0 -i 13 -k RTR
h -t 0.448750000 -s 0 -d 1 -p cbr -e 230 -c 2 -a 0 -i 13 -k RTR
r -t 0.449702931 -s 1 -d 1 -p cbr -e 230 -c 2 -a 0 -i 11 -k MAC
+ -t 0.449712931 -s 1 -d -1 -p ACK -e 38 -c 2 -a 0 -i 0 -k MAC 
- -t 0.449712931 -s 1 -d -1 -p ACK -e 38 -c 2 -a 0 -i 0 -k MAC
h -t 0.449712931 -s 1 -d -1 -p ACK -e 38 -c 2 -a 0 -i 0 -k MAC
r -t 0.449727931 -s 1 -d 1 -p cbr -e 230 -c 2 -a 0 -i 11 -k AGT
r -t 0.450017492 -s 0 -d -1 -p ACK -e 38 -c 2 -a 0 -i 0 -k MAC
+ -t 0.450407492 -s 0 -d -1 -p RTS -e 44 -c 2 -a 0 -i 0 -k MAC 
- -t 0.450407492 -s 0 -d -1 -p RTS -e 44 -c 2 -a 0 -i 0 -k MAC
h -t 0.450407492 -s 0 -d -1 -p RTS -e 44 -c 2 -a 0 -i 0 -k MAC
r -t 0.450760054 -s 1 -d -1 -p RTS -e 44 -c 2 -a 0 -i 0 -k MAC
+ -t 0.450770054 -s 1 -d -1 -p CTS -e 38 -c 2 -a 0 -i 0 -k MAC 
- -t 0.450770054 -s 1 -d -1 -p CTS -e 38 -c 2 -a 0 -i 0 -k MAC
h -t 0.450770054 -s 1 -d -1 -p CTS -e 38 -c 2 -a 0 -i 0 -k MAC
r -t 0.451074616 -s 0 -d -1 -p CTS -e 38 -c 2 -a 0 -i 0 -k MAC
+ -t 0.451084616 -s 0 -d 1 -p cbr -e 288 -c 2 -a 0 -i 12 -k MAC 
- -t 0.451084616 -s 0 -d 1 -p cbr -e 288 -c 2 -a 0 -i 12 -k MAC
h -t 0.451084616 -s 0 -d 1 -p cbr -e 288 -c 2 -a 0 -i 12 -k MAC
+ -t 0.452500000 -s 0 -d -1 -p cbr -e 210 -c 2 -a 0 -i 14 -k AGT 
- -t 0.452500000 -s 0 -d -1 -p cbr -e 210 -c 2 -a 0 -i 14 -k AGT
h -t 0.452500000 -s 0 -d -1 -p cbr -e 210 -c 2 -a 0 -i 14 -k AGT
+ -t 0.452500000 -s 0 -d 1 -p cbr -e 230 -c 2 -a 0 -i 14 -k RTR 
- -t 0.452500000 -s 0 -d 1 -p cbr -e 230 -c 2 -a 0 -i 14 -k RTR
h -t 0.452500000 -s 0 -d 1 -p cbr -e 230 -c 2 -a 0 -i 14 -k RTR
r -t 0.453389178 -s 1 -d 1 -p cbr -e 230 -c 2 -a 0 -i 12 -k MAC
+ -t 0.453399178 -s 1 -d -1 -p ACK -e 38 -c 2 -a 0 -i 0 -k MAC 
- -t 0.453399178 -s 1 -d -1 -p ACK -e 38 -c 2 -a 0 -i 0 -k MAC
h -t 0.453399178 -s 1 -d -1 -p ACK -e 38 -c 2 -a 0 -i 0 -k MAC
r -t 0.453414178 -s 1 -d 1 -p cbr -e 230 -c 2 -a 0 -i 12 -k AGT
r -t 0.453703743 -s 0 -d -1 -p ACK -e 38 -c 2 -a 0 -i 0 -k MAC
+ -t 0.454073743 -s 0 -d -1 -p RTS -e 44 -c 2 -a 0 -i 0 -k MAC 
- -t 0.454073743 -s 0 -d -1 -p RTS -e 44 -c 2 -a 0 -i 0 -k MAC
h -t 0.454073743 -s 0 -d -1 -p RTS -e 44 -c 2 -a 0 -i 0 -k MAC
r -t 0.454426310 -s 1 -d -1 -p RTS -e 44 -c 2 -a 0 -i 0 -k MAC
+ -t 0.454436310 -s 1 -d -1 -p CTS -e 38 -c 2 -a 0 -i 0 -k MAC 
- -t 0.454436310 -s 1 -d -1 -p CTS -e 38 -c 2 -a 0 -i 0 -k MAC
h -t 0.454436310 -s 1 -d -1 -p CTS -e 38 -c 2 -a 0 -i 0 -k MAC
r -t 0.454740877 -s 0 -d -1 -p CTS -e 38 -c 2 -a 0 -i 0 -k MAC
+ -t 0.454750877 -s 0 -d 1 -p cbr -e 288 -c 2 -a 0 -i 13 -k MAC 
- -t 0.454750877 -s 0 -d 1 -p cbr -e 288 -c 2 -a 0 -i 13 -k MAC
h -t 0.454750877 -s 0 -d 1 -p cbr -e 288 -c 2 -a 0 -i 13 -k MAC
+ -t 0.456250000 -s 0 -d -1 -p cbr -e 210 -c 2 -a 0 -i 15 -k AGT 
- -t 0.456250000 -s 0 -d -1 -p cbr -e 210 -c 2 -a 0 -i 15 -k AGT
h -t 0.456250000 -s 0 -d -1 -p cbr -e 210 -c 2 -a 0 -i 15 -k AGT
+ -t 0.456250000 -s 0 -d 1 -p cbr -e 230 -c 2 -a 0 -i 15 -k RTR 
- -t 0.456250000 -s 0 -d 1 -p cbr -e 230 -c 2 -a 0 -i 15 -k RTR
h -t 0.456250000 -s 0 -d 1 -p cbr -e 230 -c 2 -a 0 -i 15 -k RTR
r -t 0.457055444 -s 1 -d 1 -p cbr -e 230 -c 2 -a 0 -i 13 -k MAC
+ -t 0.457065444 -s 1 -d -1 -p ACK -e 38 -c 2 -a 0 -i 0 -k MAC 
- -t 0.457065444 -s 1 -d -1 -p ACK -e 38 -c 2 -a 0 -i 0 -k MAC
h -t 0.457065444 -s 1 -d -1 -p ACK -e 38 -c 2 -a 0 -i 0 -k MAC
r -t 0.457080444 -s 1 -d 1 -p cbr -e 230 -c 2 -a 0 -i 13 -k AGT
r -t 0.457370014 -s 0 -d -1 -p ACK -e 38 -c 2 -a 0 -i 0 -k MAC
+ -t 0.457620014 -s 0 -d -1 -p RTS -e 44 -c 2 -a 0 -i 0 -k MAC 
- -t 0.457620014 -s 0 -d -1 -p RTS -e 44 -c 2 -a 0 -i 0 -k MAC
h -t 0.457620014 -s 0 -d -1 -p RTS -e 44 -c 2 -a 0 -i 0 -k MAC
r -t 0.457972585 -s 1 -d -1 -p RTS -e 44 -c 2 -a 0 -i 0 -k MAC
+ -t 0.457982585 -s 1 -d -1 -p CTS -e 38 -c 2 -a 0 -i 0 -k MAC 
- -t 0.457982585 -s 1 -d -1 -p CTS -e 38 -c 2 -a 0 -i 0 -k MAC
h -t 0.457982585 -s 1 -d -1 -p CTS -e 38 -c 2 -a 0 -i 0 -k MAC
r -t 0.458287157 -s 0 -d -1 -p CTS -e 38 -c 2 -a 0 -i 0 -k MAC
+ -t 0.458297157 -s 0 -d 1 -p cbr -e 288 -c 2 -a 0 -i 14 -k MAC 
- -t 0.458297157 -s 0 -d 1 -p cbr -e 288 -c 2 -a 0 -i 14 -k MAC
h -t 0.458297157 -s 0 -d 1 -p cbr -e 288 -c 2 -a 0 -i 14 -k MAC
+ -t 0.460000000 -s 0 -d -1 -p cbr -e 210 -c 2 -a 0 -i 16 -k AGT 
- -t 0.460000000 -s 0 -d -1 -p cbr -e 210 -c 2 -a 0 -i 16 -k AGT
h -t 0.460000000 -s 0 -d -1 -p cbr -e 210 -c 2 -a 0 -i 16 -k AGT
+ -t 0.460000000 -s 0 -d 1 -p cbr -e 230 -c 2 -a 0 -i 16 -k RTR 
- -t 0.460000000 -s 0 -d 1 -p cbr -e 230 -c 2 -a 0 -i 16 -k RTR
h -t 0.460000000 -s 0 -d 1 -p cbr -e 230 -c 2 -a 0 -i 16 -k RTR
r -t 0.460601729 -s 1 -d 1 -p cbr -e 230 -c 2 -a 0 -i 14 -k MAC
+ -t 0.460611729 -s 1 -d -1 -p ACK -e 38 -c 2 -a 0 -i 0 -k MAC 
- -t 0.460611729 -s 1 -d -1 -p ACK -e 38 -c 2 -a 0 -i 0 -k MAC
h -t 0.460611729 -s 1 -d -1 -p ACK -e 38 -c 2 -a 0 -i 0 -k MAC
r -t 0.460626729 -s 1 -d 1 -p cbr -e 230 -c 2 -a 0 -i 14 -k AGT
r -t 0.460916304 -s 0 -d -1 -p ACK -e 38 -c 2 -a 0 -i 0 -k MAC
+ -t 0.461186304 -s 0 -d -1 -p RTS -e 44 -c 2 -a 0 -i 0 -k MAC 
- -t 0.461186304 -s 0 -d -1 -p RTS -e 44 -c 2 -a 0 -i 0 -k MAC
h -t 0.461186304 -s 0 -d -1 -p RTS -e 44 -c 2 -a 0 -i 0 -k MAC
r -t 0.461538880 -s 1 -d -1 -p RTS -e 44 -c 2 -a 0 -i 0 -k MAC
+ -t 0.461548880 -s 1 -d -1 -p CTS -e 38 -c 2 -a 0 -i 0 -k MAC 
- -t 0.461548880 -s 1 -d -1 -p CTS -e 38 -c 2 -a 0 -i 0 -k MAC
h -t 0.461548880 -s 1 -d -1 -p CTS -e 38 -c 2 -a 0 -i 0 -k MAC
r -t 0.461853456 -s 0 -d -1 -p CTS -e 38 -c 2 -a 0 -i 0 -k MAC
+ -t 0.461863456 -s 0 -d 1 -p cbr -e 288 -c 2 -a 0 -i 15 -k MAC 
- -t 0.461863456 -s 0 -d 1 -p cbr -e 288 -c 2 -a 0 -i 15 -k MAC
h -t 0.461863456 -s 0 -d 1 -p cbr -e 288 -c 2 -a 0 -i 15 -k MAC
+ -t 0.463750000 -s 0 -d -1 -p cbr -e 210 -c 2 -a 0 -i 17 -k AGT 
- -t 0.463750000 -s 0 -d -1 -p cbr -e 210 -c 2 -a 0 -i 17 -k AGT
h -t 0.463750000 -s 0 -d -1 -p cbr -e 210 -c 2 -a 0 -i 17 -k AGT
+ -t 0.463750000 -s 0 -d 1 -p cbr -e 230 -c 2 -a 0 -i 17 -k RTR 
- -t 0.463750000 -s 0 -d 1 -p cbr -e 230 -c 2 -a 0 -i 17 -k RTR
h -t 0.463750000 -s 0 -d 1 -p cbr -e 230 -c 2 -a 0 -i 17 -k RTR
r -t 0.464168033 -s 1 -d 1 -p cbr -e 230 -c 2 -a 0 -i 15 -k MAC
+ -t 0.464178033 -s 1 -d -1 -p ACK -e 38 -c 2 -a 0 -i 0 -k MAC 
- -t 0.464178033 -s 1 -d -1 -p ACK -e 38 -c 2 -a 0 -i 0 -k MAC
h -t 0.464178033 -s 1 -d -1 -p ACK -e 38 -c 2 -a 0 -i 0 -k MAC
r -t 0.464193033 -s 1 -d 1 -p cbr -e 230 -c 2 -a 0 -i 15 -k AGT
r -t 0.464482613 -s 0 -d -1 -p ACK -e 38 -c 2 -a 0 -i 0 -k MAC
+ -t 0.464552613 -s 0 -d -1 -p RTS -e 44 -c 2 -a 0 -i 0 -k MAC 
- -t 0.464552613 -s 0 -d -1 -p RTS -e 44 -c 2 -a 0 -i 0 -k MAC
h -t 0.464552613 -s 0 -d -1 -p RTS -e 44 -c 2 -a 0 -i 0 -k MAC
r -t 0.464905193 -s 1 -d -1 -p RTS -e 44 -c 2 -a 0 -i 0 -k MAC
+ -t 0.464915193 -s 1 -d -1 -p CTS -e 38 -c 2 -a 0 -i 0 -k MAC 
- -t 0.464915193 -s 1 -d -1 -p CTS -e 38 -c 2 -a 0 -i 0 -k MAC
h -t 0.464915193 -s 1 -d -1 -p CTS -e 38 -c 2 -a 0 -i 0 -k MAC
r -t 0.465219774 -s 0 -d -1 -p CTS -e 38 -c 2 -a 0 -i 0 -k MAC
+ -t 0.465229774 -s 0 -d 1 -p cbr -e 288 -c 2 -a 0 -i 16 -k MAC 
- -t 0.465229774 -s 0 -d 1 -p cbr -e 288 -c 2 -a 0 -i 16 -k MAC
h -t 0.465229774 -s 0 -d 1 -p cbr -e 288 -c 2 -a 0 -i 16 -k MAC
+ -t 0.467500000 -s 0 -d -1 -p cbr -e 210 -c 2 -a 0 -i 18 -k AGT 
- -t 0.467500000 -s 0 -d -1 -p cbr -e 210 -c 2 -a 0 -i 18 -k AGT
h -t 0.467500000 -s 0 -d -1 -p cbr -e 210 -c 2 -a 0 -i 18 -k AGT
+ -t 0.467500000 -s 0 -d 1 -p cbr -e 230 -c 2 -a 0 -i 18 -k RTR 
- -t 0.467500000 -s 0 -d 1 -p cbr -e 230 -c 2 -a 0 -i 18 -k RTR
h -t 0.467500000 -s 0 -d 1 -p cbr -e 230 -c 2 -a 0 -i 18 -k RTR
r -t 0.467534355 -s 1 -d 1 -p cbr -e 230 -c 2 -a 0 -i 16 -k MAC
+ -t 0.467544355 -s 1 -d -1 -p ACK -e 38 -c 2 -a 0 -i 0 -k MAC 
- -t 0.467544355 -s 1 -d -1 -p ACK -e 38 -c 2 -a 0 -i 0 -k MAC
h -t 0.467544355 -s 1 -d -1 -p ACK -e 38 -c 2 -a 0 -i 0 -k MAC
r -t 0.467559355 -s 1 -d 1 -p cbr -e 230 -c 2 -a 0 -i 16 -k AGT
r -t 0.467848940 -s 0 -d -1 -p ACK -e 38 -c 2 -a 0 -i 0 -k MAC
+ -t 0.468138940 -s 0 -d -1 -p RTS -e 44 -c 2 -a 0 -i 0 -k MAC 
- -t 0.468138940 -s 0 -d -1 -p RTS -e 44 -c 2 -a 0 -i 0 -k MAC
h -t 0.468138940 -s 0 -d -1 -p RTS -e 44 -c 2 -a 0 -i 0 -k MAC
r -t 0.468491525 -s 1 -d -1 -p RTS -e 44 -c 2 -a 0 -i 0 -k MAC
+ -t 0.468501525 -s 1 -d -1 -p CTS -e 38 -c 2 -a 0 -i 0 -k MAC 
- -t 0.468501525 -s 1 -d -1 -p CTS -e 38 -c 2 -a 0 -i 0 -k MAC
h -t 0.468501525 -s 1 -d -1 -p CTS -e 38 -c 2 -a 0 -i 0 -k MAC
r -t 0.468806110 -s 0 -d -1 -p CTS -e 38 -c 2 -a 0 -i 0 -k MAC
+ -t 0.468816110 -s 0 -d 1 -p cbr -e 288 -c 2 -a 0 -i 17 -k MAC 
- -t 0.468816110 -s 0 -d 1 -p cbr -e 288 -c 2 -a 0 -i 17 -k MAC
h -t 0.468816110 -s 0 -d 1 -p cbr -e 288 -c 2 -a 0 -i 17 -k MAC
r -t 0.471120696 -s 1 -d 1 -p cbr -e 230 -c 2 -a 0 -i 17 -k MAC
+ -t 0.471130696 -s 1 -d -1 -p ACK -e 38 -c 2 -a 0 -i 0 -k MAC 
- -t 0.471130696 -s 1 -d -1 -p ACK -e 38 -c 2 -a 0 -i 0 -k MAC
h -t 0.471130696 -s 1 -d -1 -p ACK -e 38 -c 2 -a 0 -i 0 -k MAC
r -t 0.471145696 -s 1 -d 1 -p cbr -e 230 -c 2 -a 0 -i 17 -k AGT