M 0.00000 6 (523.00, 222.00, 0.00), (1086.00, 453.00), 40.00
s 1.000000000 _21_ AGT  --- 0 cbr 1000 [0 0 0 0] ------- [21:0 18:0 32 0] [0] 0 0
r 1.000000000 _21_ RTR  --- 0 cbr 1000 [0 0 0 0] ------- [21:0 18:0 32 0] [0] 0 0
s 1.000000000 _21_ RTR  --- 0 AODV 48 [0 0 0 0] ------- [21:255 -1:255 30 0] [0x2 1 1 [18 0] [21 4]] (REQUEST)
s 1.000535000 _21_ MAC  --- 0 AODV 106 [0 ffffffff 15 800] ------- [21:255 -1:255 30 0] [0x2 1 1 [18 0] [21 4]] (REQUEST)
r 1.001383323 _22_ MAC  --- 0 AODV 48 [0 ffffffff 15 800] ------- [21:255 -1:255 30 0] [0x2 1 1 [18 0] [21 4]] (REQUEST)
r 1.001383385 _15_ MAC  --- 0 AODV 48 [0 ffffffff 15 800] ------- [21:255 -1:255 30 0] [0x2 1 1 [18 0] [21 4]] (REQUEST)
r 1.001383516 _20_ MAC  --- 0 AODV 48 [0 ffffffff 15 800] ------- [21:255 -1:255 30 0] [0x2 1 1 [18 0] [21 4]] (REQUEST)
r 1.001383641 _23_ MAC  --- 0 AODV 48 [0 ffffffff 15 800] ------- [21:255 -1:255 30 0] [0x2 1 1 [18 0] [21 4]] (REQUEST)
r 1.001383756 _1_ MAC  --- 0 AODV 48 [0 ffffffff 15 800] ------- [21:255 -1:255 30 0] [0x2 1 1 [18 0] [21 4]] (REQUEST)
r 1.001383790 _12_ MAC  --- 0 AODV 48 [0 ffffffff 15 800] ------- [21:255 -1:255 30 0] [0x2 1 1 [18 0] [21 4]] (REQUEST)
r 1.001408323 _22_ RTR  --- 0 AODV 48 [0 ffffffff 15 800] ------- [21:255 -1:255 30 0] [0x2 1 1 [18 0] [21 4]] (REQUEST)
s 1.001408323 _22_ RTR  --- 0 AODV 48 [0 ffffffff 15 800] ------- [22:255 -1:255 29 0] [0x2 2 1 [18 0] [21 4]] (REQUEST)
r 1.001408385 _15_ RTR  --- 0 AODV 48 [0 ffffffff 15 800] ------- [21:255 -1:255 30 0] [0x2 1 1 [18 0] [21 4]] (REQUEST)
s 1.001408385 _15_ RTR  --- 0 AODV 48 [0 ffffffff 15 800] ------- [15:255 -1:255 29 0] [0x2 2 1 [18 0] [21 4]] (REQUEST)
r 1.001408516 _20_ RTR  --- 0 AODV 48 [0 ffffffff 15 800] ------- [21:255 -1:255 30 0] [0x2 1 1 [18 0] [21 4]] (REQUEST)
s 1.001408516 _20_ RTR  --- 0 AODV 48 [0 ffffffff 15 800] ------- [20:255 -1:255 29 0] [0x2 2 1 [18 0] [21 4]] (REQUEST)
r 1.001408641 _23_ RTR  --- 0 AODV 48 [0 ffffffff 15 800] ------- [21:255 -1:255 30 0] [0x2 1 1 [18 0] [21 4]] (REQUEST)
s 1.001408641 _23_ RTR  --- 0 AODV 48 [0 ffffffff 15 800] ------- [23:255 -1:255 29 0] [0x2 2 1 [18 0] [21 4]] (REQUEST)
r 1.001408756 _1_ RTR  --- 0 AODV 48 [0 ffffffff 15 800] ------- [21:255 -1:255 30 0] [0x2 1 1 [18 0] [21 4]] (REQUEST)
s 1.001408756 _1_ RTR  --- 0 AODV 48 [0 ffffffff 15 800] ------- [1:255 -1:255 29 0] [0x2 2 1 [18 0] [21 4]] (REQUEST)
r 1.001408790 _12_ RTR  --- 0 AODV 48 [0 ffffffff 15 800] ------- [21:255 -1:255 30 0] [0x2 1 1 [18 0] [21 4]] (REQUEST)
s 1.001408790 _12_ RTR  --- 0 AODV 48 [0 ffffffff 15 800] ------- [12:255 -1:255 29 0] [0x2 2 1 [18 0] [21 4]] (REQUEST)
s 1.001483641 _23_ MAC  --- 0 AODV 106 [0 ffffffff 17 800] ------- [23:255 -1:255 29 0] [0x2 2 1 [18 0] [21 4]] (REQUEST)
r 1.002331962 _22_ MAC  --- 0 AODV 48 [0 ffffffff 17 800] ------- [23:255 -1:255 29 0] [0x2 2 1 [18 0] [21 4]] (REQUEST)
r 1.002332017 _24_ MAC  --- 0 AODV 48 [0 ffffffff 17 800] ------- [23:255 -1:255 29 0] [0x2 2 1 [18 0] [21 4]] (REQUEST)
r 1.002332283 _21_ MAC  --- 0 AODV 48 [0 ffffffff 17 800] ------- [23:255 -1:255 29 0] [0x2 2 1 [18 0] [21 4]] (REQUEST)
r 1.002332325 _15_ MAC  --- 0 AODV 48 [0 ffffffff 17 800] ------- [23:255 -1:255 29 0] [0x2 2 1 [18 0] [21 4]] (REQUEST)
r 1.002332428 _9_ MAC  --- 0 AODV 48 [0 ffffffff 17 800] ------- [23:255 -1:255 29 0] [0x2 2 1 [18 0] [21 4]] (REQUEST)
r 1.002356962 _22_ RTR  --- 0 AODV 48 [0 ffffffff 17 800] ------- [23:255 -1:255 29 0] [0x2 2 1 [18 0] [21 4]] (REQUEST)
r 1.002357017 _24_ RTR  --- 0 AODV 48 [0 ffffffff 17 800] ------- [23:255 -1:255 29 0] [0x2 2 1 [18 0] [21 4]] (REQUEST)
s 1.002357017 _24_ RTR  --- 0 AODV 48 [0 ffffffff 17 800] ------- [24:255 -1:255 28 0] [0x2 3 1 [18 0] [21 4]] (REQUEST)
r 1.002357283 _21_ RTR  --- 0 AODV 48 [0 ffffffff 17 800] ------- [23:255 -1:255 29 0] [0x2 2 1 [18 0] [21 4]] (REQUEST)
r 1.002357325 _15_ RTR  --- 0 AODV 48 [0 ffffffff 17 800] ------- [23:255 -1:255 29 0] [0x2 2 1 [18 0] [21 4]] (REQUEST)
r 1.002357428 _9_ RTR  --- 0 AODV 48 [0 ffffffff 17 800] ------- [23:255 -1:255 29 0] [0x2 2 1 [18 0] [21 4]] (REQUEST)
s 1.002357428 _9_ RTR  --- 0 AODV 48 [0 ffffffff 17 800] ------- [9:255 -1:255 28 0] [0x2 3 1 [18 0] [21 4]] (REQUEST)
s 1.002682325 _15_ MAC  --- 0 AODV 106 [0 ffffffff f 800] ------- [15:255 -1:255 29 0] [0x2 2 1 [18 0] [21 4]] (REQUEST)
r 1.003530709 _21_ MAC  --- 0 AODV 48 [0 ffffffff f 800] ------- [15:255 -1:255 29 0] [0x2 2 1 [18 0] [21 4]] (REQUEST)
r 1.003530751 _22_ MAC  --- 0 AODV 48 [0 ffffffff f 800] ------- [15:255 -1:255 29 0] [0x2 2 1 [18 0] [21 4]] (REQUEST)
r 1.003530759 _12_ MAC  --- 0 AODV 48 [0 ffffffff f 800] ------- [15:255 -1:255 29 0] [0x2 2 1 [18 0] [21 4]] (REQUEST)
r 1.003530873 _20_ MAC  --- 0 AODV 48 [0 ffffffff f 800] ------- [15:255 -1:255 29 0] [0x2 2 1 [18 0] [21 4]] (REQUEST)
r 1.003530874 _1_ MAC  --- 0 AODV 48 [0 ffffffff f 800] ------- [15:255 -1:255 29 0] [0x2 2 1 [18 0] [21 4]] (REQUEST)
r 1.003530942 _9_ MAC  --- 0 AODV 48 [0 ffffffff f 800] ------- [15:255 -1:255 29 0] [0x2 2 1 [18 0] [21 4]] (REQUEST)
r 1.003530958 _6_ MAC  --- 0 AODV 48 [0 ffffffff f 800] ------- [15:255 -1:255 29 0] [0x2 2 1 [18 0] [21 4]] (REQUEST)
r 1.003530963 _4_ MAC  --- 0 AODV 48 [0 ffffffff f 800] ------- [15:255 -1:255 29 0] [0x2 2 1 [18 0] [21 4]] (REQUEST)
r 1.003531008 _23_ MAC  --- 0 AODV 48 [0 ffffffff f 800] ------- [15:255 -1:255 29 0] [0x2 2 1 [18 0] [21 4]] (REQUEST)
r 1.003531070 _19_ MAC  --- 0 AODV 48 [0 ffffffff f 800] ------- [15:255 -1:255 29 0] [0x2 2 1 [18 0] [21 4]] (REQUEST)
r 1.003531156 _24_ MAC  --- 0 AODV 48 [0 ffffffff f 800] ------- [15:255 -1:255 29 0] [0x2 2 1 [18 0] [21 4]] (REQUEST)
r 1.003555709 _21_ RTR  --- 0 AODV 48 [0 ffffffff f 800] ------- [15:255 -1:255 29 0] [0x2 2 1 [18 0] [21 4]] (REQUEST)
r 1.003555751 _22_ RTR  --- 0 AODV 48 [0 ffffffff f 800] ------- [15:255 -1:255 29 0] [0x2 2 1 [18 0] [21 4]] (REQUEST)
r 1.003555759 _12_ RTR  --- 0 AODV 48 [0 ffffffff f 800] ------- [15:255 -1:255 29 0] [0x2 2 1 [18 0] [21 4]] (REQUEST)
r 1.003555873 _20_ RTR  --- 0 AODV 48 [0 ffffffff f 800] ------- [15:255 -1:255 29 0] [0x2 2 1 [18 0] [21 4]] (REQUEST)
r 1.003555874 _1_ RTR  --- 0 AODV 48 [0 ffffffff f 800] ------- [15:255 -1:255 29 0] [0x2 2 1 [18 0] [21 4]] (REQUEST)
r 1.003555942 _9_ RTR  --- 0 AODV 48 [0 ffffffff f 800] ------- [15:255 -1:255 29 0] [0x2 2 1 [18 0] [21 4]] (REQUEST)
r 1.003555958 _6_ RTR  --- 0 AODV 48 [0 ffffffff f 800] ------- [15:255 -1:255 29 0] [0x2 2 1 [18 0] [21 4]] (REQUEST)
s 1.003555958 _6_ RTR  --- 0 AODV 48 [0 ffffffff f 800] ------- [6:255 -1:255 28 0] [0x2 3 1 [18 0] [21 4]] (REQUEST)
r 1.003555963 _4_ RTR  --- 0 AODV 48 [0 ffffffff f 800] ------- [15:255 -1:255 29 0] [0x2 2 1 [18 0] [21 4]] (REQUEST)
s 1.003555963 _4_ RTR  --- 0 AODV 48 [0 ffffffff f 800] ------- [4:255 -1:255 28 0] [0x2 3 1 [18 0] [21 4]] (REQUEST)
r 1.003556008 _23_ RTR  --- 0 AODV 48 [0 ffffffff f 800] ------- [15:255 -1:255 29 0] [0x2 2 1 [18 0] [21 4]] (REQUEST)
r 1.003556070 _19_ RTR  --- 0 AODV 48 [0 ffffffff f 800] ------- [15:255 -1:255 29 0] [0x2 2 1 [18 0] [21 4]] (REQUEST)
s 1.003556070 _19_ RTR  --- 0 AODV 48 [0 ffffffff f 800] ------- [19:255 -1:255 28 0] [0x2 3 1 [18 0] [21 4]] (REQUEST)
r 1.003556156 _24_ RTR  --- 0 AODV 48 [0 ffffffff f 800] ------- [15:255 -1:255 29 0] [0x2 2 1 [18 0] [21 4]] (REQUEST)
s 1.003600942 _9_ MAC  --- 0 AODV 106 [0 ffffffff 9 800] ------- [9:255 -1:255 28 0] [0x2 3 1 [18 0] [21 4]] (REQUEST)
r 1.004449431 _6_ MAC  --- 0 AODV 48 [0 ffffffff 9 800] ------- [9:255 -1:255 28 0] [0x2 3 1 [18 0] [21 4]] (REQUEST)
r 1.004449557 _12_ MAC  --- 0 AODV 48 [0 ffffffff 9 800] ------- [9:255 -1:255 28 0] [0x2 3 1 [18 0] [21 4]] (REQUEST)
r 1.004449560 _24_ MAC  --- 0 AODV 48 [0 ffffffff 9 800] ------- [9:255 -1:255 28 0] [0x2 3 1 [18 0] [21 4]] (REQUEST)
r 1.004449560 _15_ MAC  --- 0 AODV 48 [0 ffffffff 9 800] ------- [9:255 -1:255 28 0] [0x2 3 1 [18 0] [21 4]] (REQUEST)
r 1.004449602 _10_ MAC  --- 0 AODV 48 [0 ffffffff 9 800] ------- [9:255 -1:255 28 0] [0x2 3 1 [18 0] [21 4]] (REQUEST)
r 1.004449641 _7_ MAC  --- 0 AODV 48 [0 ffffffff 9 800] ------- [9:255 -1:255 28 0] [0x2 3 1 [18 0] [21 4]] (REQUEST)
r 1.004449672 _4_ MAC  --- 0 AODV 48 [0 ffffffff 9 800] ------- [9:255 -1:255 28 0] [0x2 3 1 [18 0] [21 4]] (REQUEST)
r 1.004449696 _13_ MAC  --- 0 AODV 48 [0 ffffffff 9 800] ------- [9:255 -1:255 28 0] [0x2 3 1 [18 0] [21 4]] (REQUEST)
r 1.004449722 _22_ MAC  --- 0 AODV 48 [0 ffffffff 9 800] ------- [9:255 -1:255 28 0] [0x2 3 1 [18 0] [21 4]] (REQUEST)
r 1.004449729 _23_ MAC  --- 0 AODV 48 [0 ffffffff 9 800] ------- [9:255 -1:255 28 0] [0x2 3 1 [18 0] [21 4]] (REQUEST)
r 1.004474431 _6_ RTR  --- 0 AODV 48 [0 ffffffff 9 800] ------- [9:255 -1:255 28 0] [0x2 3 1 [18 0] [21 4]] (REQUEST)
r 1.004474557 _12_ RTR  --- 0 AODV 48 [0 ffffffff 9 800] ------- [9:255 -1:255 28 0] [0x2 3 1 [18 0] [21 4]] (REQUEST)
r 1.004474560 _24_ RTR  --- 0 AODV 48 [0 ffffffff 9 800] ------- [9:255 -1:255 28 0] [0x2 3 1 [18 0] [21 4]] (REQUEST)
r 1.004474560 _15_ RTR  --- 0 AODV 48 [0 ffffffff 9 800] ------- [9:255 -1:255 28 0] [0x2 3 1 [18 0] [21 4]] (REQUEST)
r 1.004474602 _10_ RTR  --- 0 AODV 48 [0 ffffffff 9 800] ------- [9:255 -1:255 28 0] [0x2 3 1 [18 0] [21 4]] (REQUEST)
s 1.004474602 _10_ RTR  --- 0 AODV 48 [0 ffffffff 9 800] ------- [10:255 -1:255 27 0] [0x2 4 1 [18 0] [21 4]] (REQUEST)
r 1.004474641 _7_ RTR  --- 0 AODV 48 [0 ffffffff 9 800] ------- [9:255 -1:255 28 0] [0x2 3 1 [18 0] [21 4]] (REQUEST)
s 1.004474641 _7_ RTR  --- 0 AODV 48 [0 ffffffff 9 800] ------- [7:255 -1:255 27 0] [0x2 4 1 [18 0] [21 4]] (REQUEST)
r 1.004474672 _4_ RTR  --- 0 AODV 48 [0 ffffffff 9 800] ------- [9:255 -1:255 28 0] [0x2 3 1 [18 0] [21 4]] (REQUEST)
r 1.004474696 _13_ RTR  --- 0 AODV 48 [0 ffffffff 9 800] ------- [9:255 -1:255 28 0] [0x2 3 1 [18 0] [21 4]] (REQUEST)
s 1.004474696 _13_ RTR  --- 0 AODV 48 [0 ffffffff 9 800] ------- [13:255 -1:255 27 0] [0x2 4 1 [18 0] [21 4]] (REQUEST)
r 1.004474722 _22_ RTR  --- 0 AODV 48 [0 ffffffff 9 800] ------- [9:255 -1:255 28 0] [0x2 3 1 [18 0] [21 4]] (REQUEST)
r 1.004474729 _23_ RTR  --- 0 AODV 48 [0 ffffffff 9 800] ------- [9:255 -1:255 28 0] [0x2 3 1 [18 0] [21 4]] (REQUEST)
s 1.004539431 _6_ MAC  --- 0 AODV 106 [0 ffffffff 6 800] ------- [6:255 -1:255 28 0] [0x2 3 1 [18 0] [21 4]] (REQUEST)
r 1.005387707 _4_ MAC  --- 0 AODV 48 [0 ffffffff 6 800] ------- [6:255 -1:255 28 0] [0x2 3 1 [18 0] [21 4]] (REQUEST)
r 1.005387721 _12_ MAC  --- 0 AODV 48 [0 ffffffff 6 800] ------- [6:255 -1:255 28 0] [0x2 3 1 [18 0] [21 4]] (REQUEST)
r 1.005387828 _7_ MAC  --- 0 AODV 48 [0 ffffffff 6 800] ------- [6:255 -1:255 28 0] [0x2 3 1 [18 0] [21 4]] (REQUEST)
r 1.005387921 _9_ MAC  --- 0 AODV 48 [0 ffffffff 6 800] ------- [6:255 -1:255 28 0] [0x2 3 1 [18 0] [21 4]] (REQUEST)
r 1.005387996 _10_ MAC  --- 0 AODV 48 [0 ffffffff 6 800] ------- [6:255 -1:255 28 0] [0x2 3 1 [18 0] [21 4]] (REQUEST)
r 1.005388063 _3_ MAC  --- 0 AODV 48 [0 ffffffff 6 800] ------- [6:255 -1:255 28 0] [0x2 3 1 [18 0] [21 4]] (REQUEST)
r 1.005388065 _15_ MAC  --- 0 AODV 48 [0 ffffffff 6 800] ------- [6:255 -1:255 28 0] [0x2 3 1 [18 0] [21 4]] (REQUEST)
r 1.005388078 _1_ MAC  --- 0 AODV 48 [0 ffffffff 6 800] ------- [6:255 -1:255 28 0] [0x2 3 1 [18 0] [21 4]] (REQUEST)
r 1.005388214 _5_ MAC  --- 0 AODV 48 [0 ffffffff 6 800] ------- [6:255 -1:255 28 0] [0x2 3 1 [18 0] [21 4]] (REQUEST)
r 1.005388224 _13_ MAC  --- 0 AODV 48 [0 ffffffff 6 800] ------- [6:255 -1:255 28 0] [0x2 3 1 [18 0] [21 4]] (REQUEST)
r 1.005412707 _4_ RTR  --- 0 AODV 48 [0 ffffffff 6 800] ------- [6:255 -1:255 28 0] [0x2 3 1 [18 0] [21 4]] (REQUEST)
r 1.005412721 _12_ RTR  --- 0 AODV 48 [0 ffffffff 6 800] ------- [6:255 -1:255 28 0] [0x2 3 1 [18 0] [21 4]] (REQUEST)
r 1.005412828 _7_ RTR  --- 0 AODV 48 [0 ffffffff 6 800] ------- [6:255 -1:255 28 0] [0x2 3 1 [18 0] [21 4]] (REQUEST)
r 1.005412921 _9_ RTR  --- 0 AODV 48 [0 ffffffff 6 800] ------- [6:255 -1:255 28 0] [0x2 3 1 [18 0] [21 4]] (REQUEST)
r 1.005412996 _10_ RTR  --- 0 AODV 48 [0 ffffffff 6 800] ------- [6:255 -1:255 28 0] [0x2 3 1 [18 0] [21 4]] (REQUEST)
r 1.005413063 _3_ RTR  --- 0 AODV 48 [0 ffffffff 6 800] ------- [6:255 -1:255 28 0] [0x2 3 1 [18 0] [21 4]] (REQUEST)
s 1.005413063 _3_ RTR  --- 0 AODV 48 [0 ffffffff 6 800] ------- [3:255 -1:255 27 0] [0x2 4 1 [18 0] [21 4]] (REQUEST)
r 1.005413065 _15_ RTR  --- 0 AODV 48 [0 ffffffff 6 800] ------- [6:255 -1:255 28 0] [0x2 3 1 [18 0] [21 4]] (REQUEST)
r 1.005413078 _1_ RTR  --- 0 AODV 48 [0 ffffffff 6 800] ------- [6:255 -1:255 28 0] [0x2 3 1 [18 0] [21 4]] (REQUEST)
r 1.005413214 _5_ RTR  --- 0 AODV 48 [0 ffffffff 6 800] ------- [6:255 -1:255 28 0] [0x2 3 1 [18 0] [21 4]] (REQUEST)
r 1.005413224 _13_ RTR  --- 0 AODV 48 [0 ffffffff 6 800] ------- [6:255 -1:255 28 0] [0x2 3 1 [18 0] [21 4]] (REQUEST)
s 1.005577721 _12_ MAC  --- 0 AODV 106 [0 ffffffff c 800] ------- [12:255 -1:255 29 0] [0x2 2 1 [18 0] [21 4]] (REQUEST)
s 1.005578078 _1_ MAC  --- 0 AODV 106 [0 ffffffff 1 800] ------- [1:255 -1:255 29 0] [0x2 2 1 [18 0] [21 4]] (REQUEST)
D 1.005578475 _20_ MAC  COL 0 AODV 106 [0 ffffffff c 800] ------- [12:255 -1:255 29 0] [0x2 2 1 [18 0] [21 4]] (REQUEST)
D 1.005578500 _4_ MAC  COL 0 AODV 106 [0 ffffffff c 800] ------- [12:255 -1:255 29 0] [0x2 2 1 [18 0] [21 4]] (REQUEST)
D 1.005578628 _15_ MAC  COL 0 AODV 106 [0 ffffffff c 800] ------- [12:255 -1:255 29 0] [0x2 2 1 [18 0] [21 4]] (REQUEST)
D 1.005578753 _3_ MAC  COL 0 AODV 106 [0 ffffffff c 800] ------- [12:255 -1:255 29 0] [0x2 2 1 [18 0] [21 4]] (REQUEST)
D 1.005578783 _0_ MAC  COL 0 AODV 106 [0 ffffffff c 800] ------- [12:255 -1:255 29 0] [0x2 2 1 [18 0] [21 4]] (REQUEST)
D 1.005578834 _21_ MAC  COL 0 AODV 106 [0 ffffffff c 800] ------- [12:255 -1:255 29 0] [0x2 2 1 [18 0] [21 4]] (REQUEST)
D 1.005579046 _9_ MAC  COL 0 AODV 106 [0 ffffffff c 800] ------- [12:255 -1:255 29 0] [0x2 2 1 [18 0] [21 4]] (REQUEST)
D 1.005579064 _7_ MAC  COL 0 AODV 106 [0 ffffffff c 800] ------- [12:255 -1:255 29 0] [0x2 2 1 [18 0] [21 4]] (REQUEST)
r 1.006426011 _6_ MAC  --- 0 AODV 48 [0 ffffffff c 800] ------- [12:255 -1:255 29 0] [0x2 2 1 [18 0] [21 4]] (REQUEST)
r 1.006426321 _19_ MAC  --- 0 AODV 48 [0 ffffffff 1 800] ------- [1:255 -1:255 29 0] [0x2 2 1 [18 0] [21 4]] (REQUEST)
D 1.006426475 _20_ MAC  COL 0 AODV 106 [0 ffffffff 1 800] ------- [1:255 -1:255 29 0] [0x2 2 1 [18 0] [21 4]] (REQUEST)
D 1.006426500 _4_ MAC  COL 0 AODV 106 [0 ffffffff 1 800] ------- [1:255 -1:255 29 0] [0x2 2 1 [18 0] [21 4]] (REQUEST)
D 1.006426628 _15_ MAC  COL 0 AODV 106 [0 ffffffff 1 800] ------- [1:255 -1:255 29 0] [0x2 2 1 [18 0] [21 4]] (REQUEST)
D 1.006426753 _3_ MAC  COL 0 AODV 106 [0 ffffffff 1 800] ------- [1:255 -1:255 29 0] [0x2 2 1 [18 0] [21 4]] (REQUEST)
D 1.006426783 _0_ MAC  COL 0 AODV 106 [0 ffffffff 1 800] ------- [1:255 -1:255 29 0] [0x2 2 1 [18 0] [21 4]] (REQUEST)
D 1.006426834 _21_ MAC  COL 0 AODV 106 [0 ffffffff 1 800] ------- [1:255 -1:255 29 0] [0x2 2 1 [18 0] [21 4]] (REQUEST)
r 1.006451011 _6_ RTR  --- 0 AODV 48 [0 ffffffff c 800] ------- [12:255 -1:255 29 0] [0x2 2 1 [18 0] [21 4]] (REQUEST)
r 1.006451321 _19_ RTR  --- 0 AODV 48 [0 ffffffff 1 800] ------- [1:255 -1:255 29 0] [0x2 2 1 [18 0] [21 4]] (REQUEST)
s 1.006861064 _7_ MAC  --- 0 AODV 106 [0 ffffffff 7 800] ------- [7:255 -1:255 27 0] [0x2 4 1 [18 0] [21 4]] (REQUEST)
r 1.007709337 _10_ MAC  --- 0 AODV 48 [0 ffffffff 7 800] ------- [7:255 -1:255 27 0] [0x2 4 1 [18 0] [21 4]] (REQUEST)
r 1.007709460 _6_ MAC  --- 0 AODV 48 [0 ffffffff 7 800] ------- [7:255 -1:255 27 0] [0x2 4 1 [18 0] [21 4]] (REQUEST)
r 1.007709593 _13_ MAC  --- 0 AODV 48 [0 ffffffff 7 800] ------- [7:255 -1:255 27 0] [0x2 4 1 [18 0] [21 4]] (REQUEST)
r 1.007709614 _5_ MAC  --- 0 AODV 48 [0 ffffffff 7 800] ------- [7:255 -1:255 27 0] [0x2 4 1 [18 0] [21 4]] (REQUEST)
r 1.007709628 _4_ MAC  --- 0 AODV 48 [0 ffffffff 7 800] ------- [7:255 -1:255 27 0] [0x2 4 1 [18 0] [21 4]] (REQUEST)
r 1.007709727 _3_ MAC  --- 0 AODV 48 [0 ffffffff 7 800] ------- [7:255 -1:255 27 0] [0x2 4 1 [18 0] [21 4]] (REQUEST)
r 1.007709734 _12_ MAC  --- 0 AODV 48 [0 ffffffff 7 800] ------- [7:255 -1:255 27 0] [0x2 4 1 [18 0] [21 4]] (REQUEST)
r 1.007709763 _9_ MAC  --- 0 AODV 48 [0 ffffffff 7 800] ------- [7:255 -1:255 27 0] [0x2 4 1 [18 0] [21 4]] (REQUEST)
r 1.007709804 _8_ MAC  --- 0 AODV 48 [0 ffffffff 7 800] ------- [7:255 -1:255 27 0] [0x2 4 1 [18 0] [21 4]] (REQUEST)
r 1.007709840 _11_ MAC  --- 0 AODV 48 [0 ffffffff 7 800] ------- [7:255 -1:255 27 0] [0x2 4 1 [18 0] [21 4]] (REQUEST)
r 1.007734337 _10_ RTR  --- 0 AODV 48 [0 ffffffff 7 800] ------- [7:255 -1:255 27 0] [0x2 4 1 [18 0] [21 4]] (REQUEST)
r 1.007734460 _6_ RTR  --- 0 AODV 48 [0 ffffffff 7 800] ------- [7:255 -1:255 27 0] [0x2 4 1 [18 0] [21 4]] (REQUEST)
r 1.007734593 _13_ RTR  --- 0 AODV 48 [0 ffffffff 7 800] ------- [7:255 -1:255 27 0] [0x2 4 1 [18 0] [21 4]] (REQUEST)
r 1.007734614 _5_ RTR  --- 0 AODV 48 [0 ffffffff 7 800] ------- [7:255 -1:255 27 0] [0x2 4 1 [18 0] [21 4]] (REQUEST)
r 1.007734628 _4_ RTR  --- 0 AODV 48 [0 ffffffff 7 800] ------- [7:255 -1:255 27 0] [0x2 4 1 [18 0] [21 4]] (REQUEST)
r 1.007734727 _3_ RTR  --- 0 AODV 48 [0 ffffffff 7 800] ------- [7:255 -1:255 27 0] [0x2 4 1 [18 0] [21 4]] (REQUEST)
r 1.007734734 _12_ RTR  --- 0 AODV 48 [0 ffffffff 7 800] ------- [7:255 -1:255 27 0] [0x2 4 1 [18 0] [21 4]] (REQUEST)
r 1.007734763 _9_ RTR  --- 0 AODV 48 [0 ffffffff 7 800] ------- [7:255 -1:255 27 0] [0x2 4 1 [18 0] [21 4]] (REQUEST)
r 1.007734804 _8_ RTR  --- 0 AODV 48 [0 ffffffff 7 800] ------- [7:255 -1:255 27 0] [0x2 4 1 [18 0] [21 4]] (REQUEST)
s 1.007734804 _8_ RTR  --- 0 AODV 48 [0 ffffffff 7 800] ------- [8:255 -1:255 26 0] [0x2 5 1 [18 0] [21 4]] (REQUEST)
r 1.007734840 _11_ RTR  --- 0 AODV 48 [0 ffffffff 7 800] ------- [7:255 -1:255 27 0] [0x2 4 1 [18 0] [21 4]] (REQUEST)
s 1.007734840 _11_ RTR  --- 0 AODV 48 [0 ffffffff 7 800] ------- [11:255 -1:255 26 0] [0x2 5 1 [18 0] [21 4]] (REQUEST)
s 1.007839337 _10_ MAC  --- 0 AODV 106 [0 ffffffff a 800] ------- [10:255 -1:255 27 0] [0x2 4 1 [18 0] [21 4]] (REQUEST)
r 1.008687594 _13_ MAC  --- 0 AODV 48 [0 ffffffff a 800] ------- [10:255 -1:255 27 0] [0x2 4 1 [18 0] [21 4]] (REQUEST)
r 1.008687611 _7_ MAC  --- 0 AODV 48 [0 ffffffff a 800] ------- [10:255 -1:255 27 0] [0x2 4 1 [18 0] [21 4]] (REQUEST)
r 1.008687901 _6_ MAC  --- 0 AODV 48 [0 ffffffff a 800] ------- [10:255 -1:255 27 0] [0x2 4 1 [18 0] [21 4]] (REQUEST)
r 1.008687998 _9_ MAC  --- 0 AODV 48 [0 ffffffff a 800] ------- [10:255 -1:255 27 0] [0x2 4 1 [18 0] [21 4]] (REQUEST)
r 1.008688056 _14_ MAC  --- 0 AODV 48 [0 ffffffff a 800] ------- [10:255 -1:255 27 0] [0x2 4 1 [18 0] [21 4]] (REQUEST)
r 1.008688076 _11_ MAC  --- 0 AODV 48 [0 ffffffff a 800] ------- [10:255 -1:255 27 0] [0x2 4 1 [18 0] [21 4]] (REQUEST)
r 1.008688108 _5_ MAC  --- 0 AODV 48 [0 ffffffff a 800] ------- [10:255 -1:255 27 0] [0x2 4 1 [18 0] [21 4]] (REQUEST)
r 1.008688131 _4_ MAC  --- 0 AODV 48 [0 ffffffff a 800] ------- [10:255 -1:255 27 0] [0x2 4 1 [18 0] [21 4]] (REQUEST)
r 1.008688151 _8_ MAC  --- 0 AODV 48 [0 ffffffff a 800] ------- [10:255 -1:255 27 0] [0x2 4 1 [18 0] [21 4]] (REQUEST)
r 1.008712594 _13_ RTR  --- 0 AODV 48 [0 ffffffff a 800] ------- [10:255 -1:255 27 0] [0x2 4 1 [18 0] [21 4]] (REQUEST)
r 1.008712611 _7_ RTR  --- 0 AODV 48 [0 ffffffff a 800] ------- [10:255 -1:255 27 0] [0x2 4 1 [18 0] [21 4]] (REQUEST)
r 1.008712901 _6_ RTR  --- 0 AODV 48 [0 ffffffff a 800] ------- [10:255 -1:255 27 0] [0x2 4 1 [18 0] [21 4]] (REQUEST)
r 1.008712998 _9_ RTR  --- 0 AODV 48 [0 ffffffff a 800] ------- [10:255 -1:255 27 0] [0x2 4 1 [18 0] [21 4]] (REQUEST)
r 1.008713056 _14_ RTR  --- 0 AODV 48 [0 ffffffff a 800] ------- [10:255 -1:255 27 0] [0x2 4 1 [18 0] [21 4]] (REQUEST)
s 1.008713056 _14_ RTR  --- 0 AODV 48 [0 ffffffff a 800] ------- [14:255 -1:255 26 0] [0x2 5 1 [18 0] [21 4]] (REQUEST)
r 1.008713076 _11_ RTR  --- 0 AODV 48 [0 ffffffff a 800] ------- [10:255 -1:255 27 0] [0x2 4 1 [18 0] [21 4]] (REQUEST)
r 1.008713108 _5_ RTR  --- 0 AODV 48 [0 ffffffff a 800] ------- [10:255 -1:255 27 0] [0x2 4 1 [18 0] [21 4]] (REQUEST)
r 1.008713131 _4_ RTR  --- 0 AODV 48 [0 ffffffff a 800] ------- [10:255 -1:255 27 0] [0x2 4 1 [18 0] [21 4]] (REQUEST)
r 1.008713151 _8_ RTR  --- 0 AODV 48 [0 ffffffff a 800] ------- [10:255 -1:255 27 0] [0x2 4 1 [18 0] [21 4]] (REQUEST)
s 1.008898076 _11_ MAC  --- 0 AODV 106 [0 ffffffff b 800] ------- [11:255 -1:255 26 0] [0x2 5 1 [18 0] [21 4]] (REQUEST)
s 1.009142572 _24_ MAC  --- 0 AODV 106 [0 ffffffff 18 800] ------- [24:255 -1:255 28 0] [0x2 3 1 [18 0] [21 4]] (REQUEST)
D 1.009143807 _10_ MAC  COL 0 AODV 106 [0 ffffffff b 800] ------- [11:255 -1:255 26 0] [0x2 5 1 [18 0] [21 4]] (REQUEST)
D 1.009143819 _13_ MAC  COL 0 AODV 106 [0 ffffffff b 800] ------- [11:255 -1:255 26 0] [0x2 5 1 [18 0] [21 4]] (REQUEST)
D 1.009143886 _7_ MAC  COL 0 AODV 106 [0 ffffffff b 800] ------- [11:255 -1:255 26 0] [0x2 5 1 [18 0] [21 4]] (REQUEST)
r 1.009746386 _14_ MAC  --- 0 AODV 48 [0 ffffffff b 800] ------- [11:255 -1:255 26 0] [0x2 5 1 [18 0] [21 4]] (REQUEST)
r 1.009746390 _8_ MAC  --- 0 AODV 48 [0 ffffffff b 800] ------- [11:255 -1:255 26 0] [0x2 5 1 [18 0] [21 4]] (REQUEST)
r 1.009746743 _16_ MAC  --- 0 AODV 48 [0 ffffffff b 800] ------- [11:255 -1:255 26 0] [0x2 5 1 [18 0] [21 4]] (REQUEST)
r 1.009746806 _5_ MAC  --- 0 AODV 48 [0 ffffffff b 800] ------- [11:255 -1:255 26 0] [0x2 5 1 [18 0] [21 4]] (REQUEST)
r 1.009771386 _14_ RTR  --- 0 AODV 48 [0 ffffffff b 800] ------- [11:255 -1:255 26 0] [0x2 5 1 [18 0] [21 4]] (REQUEST)
r 1.009771390 _8_ RTR  --- 0 AODV 48 [0 ffffffff b 800] ------- [11:255 -1:255 26 0] [0x2 5 1 [18 0] [21 4]] (REQUEST)
r 1.009771743 _16_ RTR  --- 0 AODV 48 [0 ffffffff b 800] ------- [11:255 -1:255 26 0] [0x2 5 1 [18 0] [21 4]] (REQUEST)
s 1.009771743 _16_ RTR  --- 0 AODV 48 [0 ffffffff b 800] ------- [16:255 -1:255 25 0] [0x2 6 1 [18 0] [21 4]] (REQUEST)
r 1.009771806 _5_ RTR  --- 0 AODV 48 [0 ffffffff b 800] ------- [11:255 -1:255 26 0] [0x2 5 1 [18 0] [21 4]] (REQUEST)
r 1.009990948 _23_ MAC  --- 0 AODV 48 [0 ffffffff 18 800] ------- [24:255 -1:255 28 0] [0x2 3 1 [18 0] [21 4]] (REQUEST)
D 1.009991190 _9_ MAC  COL 0 AODV 106 [0 ffffffff 18 800] ------- [24:255 -1:255 28 0] [0x2 3 1 [18 0] [21 4]] (REQUEST)
r 1.009991197 _22_ MAC  --- 0 AODV 48 [0 ffffffff 18 800] ------- [24:255 -1:255 28 0] [0x2 3 1 [18 0] [21 4]] (REQUEST)
D 1.009991403 _15_ MAC  COL 0 AODV 106 [0 ffffffff 18 800] ------- [24:255 -1:255 28 0] [0x2 3 1 [18 0] [21 4]] (REQUEST)
r 1.010015948 _23_ RTR  --- 0 AODV 48 [0 ffffffff 18 800] ------- [24:255 -1:255 28 0] [0x2 3 1 [18 0] [21 4]] (REQUEST)
r 1.010016197 _22_ RTR  --- 0 AODV 48 [0 ffffffff 18 800] ------- [24:255 -1:255 28 0] [0x2 3 1 [18 0] [21 4]] (REQUEST)
s 1.010056390 _8_ MAC  --- 0 AODV 106 [0 ffffffff 8 800] ------- [8:255 -1:255 26 0] [0x2 5 1 [18 0] [21 4]] (REQUEST)
s 1.010181197 _22_ MAC  --- 0 AODV 106 [0 ffffffff 16 800] ------- [22:255 -1:255 29 0] [0x2 2 1 [18 0] [21 4]] (REQUEST)
D 1.010182611 _10_ MAC  COL 0 AODV 106 [0 ffffffff 8 800] ------- [8:255 -1:255 26 0] [0x2 5 1 [18 0] [21 4]] (REQUEST)
r 1.010904704 _11_ MAC  --- 0 AODV 48 [0 ffffffff 8 800] ------- [8:255 -1:255 26 0] [0x2 5 1 [18 0] [21 4]] (REQUEST)
r 1.010904819 _16_ MAC  --- 0 AODV 48 [0 ffffffff 8 800] ------- [8:255 -1:255 26 0] [0x2 5 1 [18 0] [21 4]] (REQUEST)
r 1.010904870 _5_ MAC  --- 0 AODV 48 [0 ffffffff 8 800] ------- [8:255 -1:255 26 0] [0x2 5 1 [18 0] [21 4]] (REQUEST)
r 1.010905009 _14_ MAC  --- 0 AODV 48 [0 ffffffff 8 800] ------- [8:255 -1:255 26 0] [0x2 5 1 [18 0] [21 4]] (REQUEST)
r 1.010905067 _2_ MAC  --- 0 AODV 48 [0 ffffffff 8 800] ------- [8:255 -1:255 26 0] [0x2 5 1 [18 0] [21 4]] (REQUEST)
r 1.010905082 _17_ MAC  --- 0 AODV 48 [0 ffffffff 8 800] ------- [8:255 -1:255 26 0] [0x2 5 1 [18 0] [21 4]] (REQUEST)
r 1.010905130 _7_ MAC  --- 0 AODV 48 [0 ffffffff 8 800] ------- [8:255 -1:255 26 0] [0x2 5 1 [18 0] [21 4]] (REQUEST)
r 1.010929704 _11_ RTR  --- 0 AODV 48 [0 ffffffff 8 800] ------- [8:255 -1:255 26 0] [0x2 5 1 [18 0] [21 4]] (REQUEST)
r 1.010929819 _16_ RTR  --- 0 AODV 48 [0 ffffffff 8 800] ------- [8:255 -1:255 26 0] [0x2 5 1 [18 0] [21 4]] (REQUEST)
r 1.010929870 _5_ RTR  --- 0 AODV 48 [0 ffffffff 8 800] ------- [8:255 -1:255 26 0] [0x2 5 1 [18 0] [21 4]] (REQUEST)
r 1.010930009 _14_ RTR  --- 0 AODV 48 [0 ffffffff 8 800] ------- [8:255 -1:255 26 0] [0x2 5 1 [18 0] [21 4]] (REQUEST)
r 1.010930067 _2_ RTR  --- 0 AODV 48 [0 ffffffff 8 800] ------- [8:255 -1:255 26 0] [0x2 5 1 [18 0] [21 4]] (REQUEST)
s 1.010930067 _2_ RTR  --- 0 AODV 48 [0 ffffffff 8 800] ------- [2:255 -1:255 25 0] [0x2 6 1 [18 0] [21 4]] (REQUEST)
r 1.010930082 _17_ RTR  --- 0 AODV 48 [0 ffffffff 8 800] ------- [8:255 -1:255 26 0] [0x2 5 1 [18 0] [21 4]] (REQUEST)
s 1.010930082 _17_ RTR  --- 0 AODV 48 [0 ffffffff 8 800] ------- [17:255 -1:255 25 0] [0x2 6 1 [18 0] [21 4]] (REQUEST)
r 1.010930130 _7_ RTR  --- 0 AODV 48 [0 ffffffff 8 800] ------- [8:255 -1:255 26 0] [0x2 5 1 [18 0] [21 4]] (REQUEST)
s 1.010995009 _14_ MAC  --- 0 AODV 106 [0 ffffffff e 800] ------- [14:255 -1:255 26 0] [0x2 5 1 [18 0] [21 4]] (REQUEST)
D 1.010996370 _9_ MAC  COL 0 AODV 106 [0 ffffffff 16 800] ------- [22:255 -1:255 29 0] [0x2 2 1 [18 0] [21 4]] (REQUEST)
r 1.011029518 _23_ MAC  --- 0 AODV 48 [0 ffffffff 16 800] ------- [22:255 -1:255 29 0] [0x2 2 1 [18 0] [21 4]] (REQUEST)
r 1.011029520 _21_ MAC  --- 0 AODV 48 [0 ffffffff 16 800] ------- [22:255 -1:255 29 0] [0x2 2 1 [18 0] [21 4]] (REQUEST)
D 1.011029623 _15_ MAC  COL 0 AODV 106 [0 ffffffff 16 800] ------- [22:255 -1:255 29 0] [0x2 2 1 [18 0] [21 4]] (REQUEST)
r 1.011029821 _24_ MAC  --- 0 AODV 48 [0 ffffffff 16 800] ------- [22:255 -1:255 29 0] [0x2 2 1 [18 0] [21 4]] (REQUEST)
r 1.011030003 _20_ MAC  --- 0 AODV 48 [0 ffffffff 16 800] ------- [22:255 -1:255 29 0] [0x2 2 1 [18 0] [21 4]] (REQUEST)
r 1.011054518 _23_ RTR  --- 0 AODV 48 [0 ffffffff 16 800] ------- [22:255 -1:255 29 0] [0x2 2 1 [18 0] [21 4]] (REQUEST)
r 1.011054520 _21_ RTR  --- 0 AODV 48 [0 ffffffff 16 800] ------- [22:255 -1:255 29 0] [0x2 2 1 [18 0] [21 4]] (REQUEST)
r 1.011054821 _24_ RTR  --- 0 AODV 48 [0 ffffffff 16 800] ------- [22:255 -1:255 29 0] [0x2 2 1 [18 0] [21 4]] (REQUEST)
r 1.011055003 _20_ RTR  --- 0 AODV 48 [0 ffffffff 16 800] ------- [22:255 -1:255 29 0] [0x2 2 1 [18 0] [21 4]] (REQUEST)
s 1.011320003 _20_ MAC  --- 0 AODV 106 [0 ffffffff 14 800] ------- [20:255 -1:255 29 0] [0x2 2 1 [18 0] [21 4]] (REQUEST)
r 1.011843318 _11_ MAC  --- 0 AODV 48 [0 ffffffff e 800] ------- [14:255 -1:255 26 0] [0x2 5 1 [18 0] [21 4]] (REQUEST)
r 1.011843627 _8_ MAC  --- 0 AODV 48 [0 ffffffff e 800] ------- [14:255 -1:255 26 0] [0x2 5 1 [18 0] [21 4]] (REQUEST)
D 1.011843642 _13_ MAC  COL 0 AODV 106 [0 ffffffff e 800] ------- [14:255 -1:255 26 0] [0x2 5 1 [18 0] [21 4]] (REQUEST)
D 1.011843728 _10_ MAC  COL 0 AODV 106 [0 ffffffff e 800] ------- [14:255 -1:255 26 0] [0x2 5 1 [18 0] [21 4]] (REQUEST)
r 1.011868318 _11_ RTR  --- 0 AODV 48 [0 ffffffff e 800] ------- [14:255 -1:255 26 0] [0x2 5 1 [18 0] [21 4]] (REQUEST)
r 1.011868627 _8_ RTR  --- 0 AODV 48 [0 ffffffff e 800] ------- [14:255 -1:255 26 0] [0x2 5 1 [18 0] [21 4]] (REQUEST)
r 1.012168384 _19_ MAC  --- 0 AODV 48 [0 ffffffff 14 800] ------- [20:255 -1:255 29 0] [0x2 2 1 [18 0] [21 4]] (REQUEST)
r 1.012168400 _1_ MAC  --- 0 AODV 48 [0 ffffffff 14 800] ------- [20:255 -1:255 29 0] [0x2 2 1 [18 0] [21 4]] (REQUEST)
r 1.012168519 _21_ MAC  --- 0 AODV 48 [0 ffffffff 14 800] ------- [20:255 -1:255 29 0] [0x2 2 1 [18 0] [21 4]] (REQUEST)
r 1.012168552 _15_ MAC  --- 0 AODV 48 [0 ffffffff 14 800] ------- [20:255 -1:255 29 0] [0x2 2 1 [18 0] [21 4]] (REQUEST)
r 1.012168674 _12_ MAC  --- 0 AODV 48 [0 ffffffff 14 800] ------- [20:255 -1:255 29 0] [0x2 2 1 [18 0] [21 4]] (REQUEST)
D 1.012168794 _4_ MAC  COL 0 AODV 106 [0 ffffffff 14 800] ------- [20:255 -1:255 29 0] [0x2 2 1 [18 0] [21 4]] (REQUEST)
r 1.012168810 _22_ MAC  --- 0 AODV 48 [0 ffffffff 14 800] ------- [20:255 -1:255 29 0] [0x2 2 1 [18 0] [21 4]] (REQUEST)
r 1.012193384 _19_ RTR  --- 0 AODV 48 [0 ffffffff 14 800] ------- [20:255 -1:255 29 0] [0x2 2 1 [18 0] [21 4]] (REQUEST)
r 1.012193400 _1_ RTR  --- 0 AODV 48 [0 ffffffff 14 800] ------- [20:255 -1:255 29 0] [0x2 2 1 [18 0] [21 4]] (REQUEST)
r 1.012193519 _21_ RTR  --- 0 AODV 48 [0 ffffffff 14 800] ------- [20:255 -1:255 29 0] [0x2 2 1 [18 0] [21 4]] (REQUEST)
r 1.012193552 _15_ RTR  --- 0 AODV 48 [0 ffffffff 14 800] ------- [20:255 -1:255 29 0] [0x2 2 1 [18 0] [21 4]] (REQUEST)
r 1.012193674 _12_ RTR  --- 0 AODV 48 [0 ffffffff 14 800] ------- [20:255 -1:255 29 0] [0x2 2 1 [18 0] [21 4]] (REQUEST)
r 1.012193810 _22_ RTR  --- 0 AODV 48 [0 ffffffff 14 800] ------- [20:255 -1:255 29 0] [0x2 2 1 [18 0] [21 4]] (REQUEST)
s 1.012318384 _19_ MAC  --- 0 AODV 106 [0 ffffffff 13 800] ------- [19:255 -1:255 28 0] [0x2 3 1 [18 0] [21 4]] (REQUEST)
s 1.012377975 _16_ MAC  --- 0 AODV 106 [0 ffffffff 10 800] ------- [16:255 -1:255 25 0] [0x2 6 1 [18 0] [21 4]] (REQUEST)
D 1.012379087 _3_ MAC  COL 0 AODV 106 [0 ffffffff 13 800] ------- [19:255 -1:255 28 0] [0x2 3 1 [18 0] [21 4]] (REQUEST)
r 1.013166627 _1_ MAC  --- 0 AODV 48 [0 ffffffff 13 800] ------- [19:255 -1:255 28 0] [0x2 3 1 [18 0] [21 4]] (REQUEST)
r 1.013166765 _20_ MAC  --- 0 AODV 48 [0 ffffffff 13 800] ------- [19:255 -1:255 28 0] [0x2 3 1 [18 0] [21 4]] (REQUEST)
r 1.013166999 _12_ MAC  --- 0 AODV 48 [0 ffffffff 13 800] ------- [19:255 -1:255 28 0] [0x2 3 1 [18 0] [21 4]] (REQUEST)
r 1.013167015 _4_ MAC  --- 0 AODV 48 [0 ffffffff 13 800] ------- [19:255 -1:255 28 0] [0x2 3 1 [18 0] [21 4]] (REQUEST)
r 1.013167077 _0_ MAC  --- 0 AODV 48 [0 ffffffff 13 800] ------- [19:255 -1:255 28 0] [0x2 3 1 [18 0] [21 4]] (REQUEST)
r 1.013167129 _15_ MAC  --- 0 AODV 48 [0 ffffffff 13 800] ------- [19:255 -1:255 28 0] [0x2 3 1 [18 0] [21 4]] (REQUEST)
r 1.013191627 _1_ RTR  --- 0 AODV 48 [0 ffffffff 13 800] ------- [19:255 -1:255 28 0] [0x2 3 1 [18 0] [21 4]] (REQUEST)